TACC: Starting up job 295633
TACC: Starting parallel tasks...

     Program PWSCF v.6.1 (svn rev. 13369) starts on 28Sep2017 at 19:19:51 

     This program is part of the open-source Quantum ESPRESSO suite
     for quantum simulation of materials; please cite
         "P. Giannozzi et al., J. Phys.:Condens. Matter 21 395502 (2009);
          URL http://www.quantum-espresso.org", 
     in publications or presentations arising from this work. More details at
     http://www.quantum-espresso.org/quote

     Parallel version (MPI), running on    64 processors
     K-points division:     npool     =       8
     R & G space division:  proc/nbgrp/npool/nimage =       8
     Waiting for input...
     Reading input from standard input

     Current dimensions of program PWSCF are:
     Max number of different atomic species (ntypx) = 10
     Max number of k-points (npk) =  40000
     Max angular momentum in pseudopotentials (lmaxx) =  3

     Atomic positions and unit cell read from directory:
     ./silicon.save/
 

     Subspace diagonalization in iterative solution of the eigenvalue problem:
     a serial algorithm will be used

 
     Parallelization info
     --------------------
     sticks:   dense  smooth     PW     G-vecs:    dense   smooth      PW
     Min          35      35     13                  389      389      87
     Max          36      36     14                  391      391      88
     Sum         283     283    109                 3119     3119     701
 


     bravais-lattice index     =            2
     lattice parameter (alat)  =      10.5995  a.u.
     unit-cell volume          =     297.7100 (a.u.)^3
     number of atoms/cell      =            2
     number of atomic types    =            1
     number of electrons       =         8.00
     number of Kohn-Sham states=           12
     kinetic-energy cutoff     =      18.0000  Ry
     charge density cutoff     =      72.0000  Ry
     Exchange-correlation      = SLA-PW ( 1  4  0  0 0 0)

     celldm(1)=  10.599478  celldm(2)=   0.000000  celldm(3)=   0.000000
     celldm(4)=   0.000000  celldm(5)=   0.000000  celldm(6)=   0.000000

     crystal axes: (cart. coord. in units of alat)
               a(1) = (  -0.500000   0.000000   0.500000 )  
               a(2) = (   0.000000   0.500000   0.500000 )  
               a(3) = (  -0.500000   0.500000   0.000000 )  

     reciprocal axes: (cart. coord. in units 2 pi/alat)
               b(1) = ( -1.000000 -1.000000  1.000000 )  
               b(2) = (  1.000000  1.000000  1.000000 )  
               b(3) = ( -1.000000  1.000000 -1.000000 )  


     PseudoPot. # 1 for Si read from file:
     ./Si.pw-mt_fhi_spd.UPF
     MD5 check sum: 9261c865ef18698f1e7526e9bb803039
     Pseudo is Norm-conserving, Zval =  4.0
     Generated using FHI98PP, converted with fhi2upf.x v.5.0.1
     Using radial grid of  495 points,  3 beta functions with: 
                l(1) =   0
                l(2) =   1
                l(3) =   3

     atomic species   valence    mass     pseudopotential
        Si             4.00    28.08600     Si( 1.00)

     No symmetry found



   Cartesian axes

     site n.     atom                  positions (alat units)
         1           Si  tau(   1) = (   0.0000000   0.0000000   0.0000000  )
         2           Si  tau(   2) = (   0.2500000   0.2500000   0.2500000  )

     number of k points=  1728

     Number of k-points >= 100: set verbosity='high' to print them.

     Dense  grid:     3119 G-vectors     FFT dimensions: (  24,  24,  24)

     Estimated max dynamical RAM per process >       0.29MB

     Estimated total allocated dynamical RAM >      18.87MB

     The potential is recalculated from file :
     ./silicon.save/charge-density.dat

     Starting wfc are   18 randomized atomic wfcs

     Band Structure Calculation
     Davidson diagonalization with overlap

     ethr =  1.25E-10,  avg # of iterations = 17.9

     total cpu time spent up to now is       22.2 secs

     End of band structure calculation

     Number of k-points >= 100: set verbosity='high' to print the bands.

     highest occupied, lowest unoccupied level (ev):     5.0654    5.7218

     Writing output data file silicon.save
 
     init_run     :      0.08s CPU      0.41s WALL (       1 calls)
     electrons    :     19.15s CPU     21.26s WALL (       1 calls)

     Called by init_run:
     wfcinit      :      0.00s CPU      0.06s WALL (       1 calls)
     potinit      :      0.03s CPU      0.04s WALL (       1 calls)

     Called by electrons:
     c_bands      :     19.14s CPU     21.25s WALL (       1 calls)
     v_of_rho     :      0.00s CPU      0.00s WALL (       1 calls)

     Called by c_bands:
     init_us_2    :      0.03s CPU      0.03s WALL (     216 calls)
     cegterg      :     13.98s CPU     14.77s WALL (     244 calls)

     Called by sum_band:

     Called by *egterg:
     h_psi        :      7.42s CPU      8.04s WALL (    4096 calls)
     g_psi        :      0.04s CPU      0.05s WALL (    3636 calls)
     cdiaghg      :      6.64s CPU      6.80s WALL (    3852 calls)

     Called by h_psi:
     h_psi:pot    :      7.39s CPU      8.00s WALL (    4096 calls)
     h_psi:calbec :      0.41s CPU      0.40s WALL (    4096 calls)
     vloc_psi     :      6.80s CPU      7.35s WALL (    4096 calls)
     add_vuspsi   :      0.14s CPU      0.19s WALL (    4096 calls)

     General routines
     calbec       :      0.39s CPU      0.37s WALL (    4096 calls)
     fft          :      0.03s CPU      0.28s WALL (       3 calls)
     fftw         :      6.32s CPU      6.73s WALL (   61704 calls)
     davcio       :      0.05s CPU      0.07s WALL (     216 calls)
 
     Parallel routines
     fft_scatter  :      2.31s CPU      2.35s WALL (   61707 calls)
 
     PWSCF        :  0m31.20s CPU     1m 1.18s WALL

 
   This run was terminated on:  19:20:52  28Sep2017            

=------------------------------------------------------------------------------=
   JOB DONE.
=------------------------------------------------------------------------------=
 
TACC: Shutdown complete. Exiting.
