
     Program PWSCF v.6.1 (svn rev. 13369) starts on 10Jul2019 at 12:33:17 

     This program is part of the open-source Quantum ESPRESSO suite
     for quantum simulation of materials; please cite
         "P. Giannozzi et al., J. Phys.:Condens. Matter 21 395502 (2009);
          URL http://www.quantum-espresso.org", 
     in publications or presentations arising from this work. More details at
     http://www.quantum-espresso.org/quote

     Parallel version (MPI), running on    16 processors
     K-points division:     npool     =       8
     R & G space division:  proc/nbgrp/npool/nimage =       2
     Waiting for input...
     Reading input from standard input

     Current dimensions of program PWSCF are:
     Max number of different atomic species (ntypx) = 10
     Max number of k-points (npk) =  40000
     Max angular momentum in pseudopotentials (lmaxx) =  3

     Subspace diagonalization in iterative solution of the eigenvalue problem:
     a serial algorithm will be used


     Parallelization info
     --------------------
     sticks:   dense  smooth     PW     G-vecs:    dense   smooth      PW
     Min         503     503    160                14116    14116    2590
     Max         504     504    161                14117    14117    2591
     Sum        1007    1007    321                28233    28233    5181



     bravais-lattice index     =            9
     lattice parameter (alat)  =       5.9417  a.u.
     unit-cell volume          =     590.8691 (a.u.)^3
     number of atoms/cell      =            6
     number of atomic types    =            2
     number of electrons       =        32.00
     number of Kohn-Sham states=           40
     kinetic-energy cutoff     =      50.0000  Ry
     charge density cutoff     =     200.0000  Ry
     convergence threshold     =      1.0E-08
     mixing beta               =       0.3000
     number of iterations used =            8  plain     mixing
     Exchange-correlation      = PBE ( 1  4  3  4 0 0)
     Non magnetic calculation with spin-orbit


     celldm(1)=   5.941677  celldm(2)=   3.555785  celldm(3)=   1.584378
     celldm(4)=   0.000000  celldm(5)=   0.000000  celldm(6)=   0.000000

     crystal axes: (cart. coord. in units of alat)
               a(1) = (   0.500000   1.777893   0.000000 )  
               a(2) = (  -0.500000   1.777893   0.000000 )  
               a(3) = (   0.000000   0.000000   1.584378 )  

     reciprocal axes: (cart. coord. in units 2 pi/alat)
               b(1) = (  1.000000  0.281232 -0.000000 )  
               b(2) = ( -1.000000  0.281232  0.000000 )  
               b(3) = (  0.000000 -0.000000  0.631163 )  


     PseudoPot. # 1 for Mo read from file:
     ./Mo.rel-pbe-n-nc.UPF
     MD5 check sum: 9ed525cd8d55be05e1b19102fcde7996
     Pseudo is Norm-conserving + core correction, Zval =  6.0
     Generated using "atomic" code by A. Dal Corso  v.5.0.2 svn rev. 9656
     Using radial grid of 1229 points,  4 beta functions with: 
                l(1) =   1
                l(2) =   1
                l(3) =   2
                l(4) =   2

     PseudoPot. # 2 for  P read from file:
     ./P.rel-pbe-n-nc.UPF
     MD5 check sum: 1c1f73bc51dc42680c337d1568c6741d
     Pseudo is Norm-conserving + core correction, Zval =  5.0
     Generated using "atomic" code by A. Dal Corso  v.5.0.2 svn rev. 9656
     Using radial grid of 1147 points,  3 beta functions with: 
                l(1) =   0
                l(2) =   1
                l(3) =   1

     atomic species   valence    mass     pseudopotential
        Mo             6.00    95.94000     Mo( 1.00)
        P              5.00    30.97380      P( 1.00)

      2 Sym. Ops. (no inversion) found
          (note:  2 additional sym.ops. were found but ignored
           their fractional translations are incommensurate with FFT grid)

                                    s                        frac. trans.

      isym =  1     identity                                     

 cryst.   s( 1) = (     1          0          0      )
                  (     0          1          0      )
                  (     0          0          1      )

 cart.    s( 1) = (  1.0000000  0.0000000  0.0000000 )
                  (  0.0000000  1.0000000  0.0000000 )
                  (  0.0000000  0.0000000  1.0000000 )


      isym =  2     inv. 180 deg rotation - cart. axis [1,0,0]   

 cryst.   s( 2) = (     0          1          0      )
                  (     1          0          0      )
                  (     0          0          1      )

 cart.    s( 2) = ( -1.0000000  0.0000000  0.0000000 )
                  (  0.0000000  1.0000000  0.0000000 )
                  (  0.0000000  0.0000000  1.0000000 )


     double point group C_s (m)    
     there are  4 classes and  2 irreducible representations
     the character table:

       E     -E    s     -s   
                              
G_3    1.00 -1.00  0.00  0.00
G_4    1.00 -1.00  0.00  0.00

     imaginary part

       E     -E    s     -s   
                              
G_3    0.00  0.00  1.00 -1.00
G_4    0.00  0.00 -1.00  1.00

     the symmetry operations in each class and the name of the first element:

     E             1
          identity                                               
     -E           -1
          identity E                                             
     s             2
          inv. 180 deg rotation - cart. axis [1,0,0]             
     -s           -2
          inv. 180 deg rotation - cart. axis [1,0,0] E           

   Cartesian axes

     site n.     atom                  positions (alat units)
         1           Mo  tau(   1) = (   0.0000000   0.3289101   0.7921888  )
         2           Mo  tau(   2) = (   0.0000000   3.2268751   0.0000000  )
         3           P   tau(   3) = (   0.0000000   1.0599796   0.4776898  )
         4           P   tau(   4) = (   0.0000000   2.4958057   1.2698786  )
         5           P   tau(   5) = (   0.0000000   1.5286321   0.9804128  )
         6           P   tau(   6) = (   0.0000000   2.0271532   0.1882241  )

   Crystallographic axes

     site n.     atom                  positions (cryst. coord.)
         1           Mo  tau(   1) = (  0.0925000  0.0925000  0.5000000  )
         2           Mo  tau(   2) = (  0.9075000  0.9075000  0.0000000  )
         3           P   tau(   3) = (  0.2981000  0.2981000  0.3015000  )
         4           P   tau(   4) = (  0.7019000  0.7019000  0.8015000  )
         5           P   tau(   5) = (  0.4299000  0.4299000  0.6188000  )
         6           P   tau(   6) = (  0.5701000  0.5701000  0.1188000  )

     number of k points=    93  gaussian smearing, width (Ry)=  0.0010
                       cart. coord. in units 2pi/alat
        k(    1) = (   0.0000000   0.0000000   0.0000000), wk =   0.0031250
        k(    2) = (   0.0000000   0.0000000   0.1262325), wk =   0.0062500
        k(    3) = (   0.0000000   0.0000000   0.2524651), wk =   0.0062500
        k(    4) = (  -0.1250000   0.0351540   0.0000000), wk =   0.0125000
        k(    5) = (  -0.1250000   0.0351540   0.1262325), wk =   0.0125000
        k(    6) = (  -0.1250000   0.0351540   0.2524651), wk =   0.0125000
        k(    7) = (  -0.2500000   0.0703080   0.0000000), wk =   0.0125000
        k(    8) = (  -0.2500000   0.0703080   0.1262325), wk =   0.0125000
        k(    9) = (  -0.2500000   0.0703080   0.2524651), wk =   0.0125000
        k(   10) = (  -0.3750000   0.1054619   0.0000000), wk =   0.0125000
        k(   11) = (  -0.3750000   0.1054619   0.1262325), wk =   0.0125000
        k(   12) = (  -0.3750000   0.1054619   0.2524651), wk =   0.0125000
        k(   13) = (   0.5000000  -0.1406159   0.0000000), wk =   0.0062500
        k(   14) = (   0.5000000  -0.1406159   0.1262325), wk =   0.0125000
        k(   15) = (   0.5000000  -0.1406159   0.2524651), wk =   0.0125000
        k(   16) = (   0.0000000   0.0703080   0.0000000), wk =   0.0062500
        k(   17) = (   0.0000000   0.0703080   0.1262325), wk =   0.0062500
        k(   18) = (   0.0000000   0.0703080   0.2524651), wk =   0.0062500
        k(   19) = (  -0.1250000   0.1054619   0.0000000), wk =   0.0125000
        k(   20) = (  -0.1250000   0.1054619   0.1262325), wk =   0.0125000
        k(   21) = (  -0.1250000   0.1054619   0.2524651), wk =   0.0125000
        k(   22) = (  -0.2500000   0.1406159   0.0000000), wk =   0.0125000
        k(   23) = (  -0.2500000   0.1406159   0.1262325), wk =   0.0125000
        k(   24) = (  -0.2500000   0.1406159   0.2524651), wk =   0.0125000
        k(   25) = (   0.6250000  -0.1054619   0.0000000), wk =   0.0125000
        k(   26) = (   0.6250000  -0.1054619   0.1262325), wk =   0.0125000
        k(   27) = (   0.6250000  -0.1054619   0.2524651), wk =   0.0125000
        k(   28) = (   0.5000000  -0.0703080   0.0000000), wk =   0.0125000
        k(   29) = (   0.5000000  -0.0703080   0.1262325), wk =   0.0125000
        k(   30) = (   0.5000000  -0.0703080   0.2524651), wk =   0.0125000
        k(   31) = (   0.3750000  -0.0351540   0.0000000), wk =   0.0125000
        k(   32) = (   0.3750000  -0.0351540   0.1262325), wk =   0.0125000
        k(   33) = (   0.3750000  -0.0351540   0.2524651), wk =   0.0125000
        k(   34) = (   0.2500000   0.0000000   0.0000000), wk =   0.0062500
        k(   35) = (   0.2500000   0.0000000   0.1262325), wk =   0.0125000
        k(   36) = (   0.2500000   0.0000000   0.2524651), wk =   0.0125000
        k(   37) = (   0.0000000   0.1406159   0.0000000), wk =   0.0062500
        k(   38) = (   0.0000000   0.1406159   0.1262325), wk =   0.0062500
        k(   39) = (   0.0000000   0.1406159   0.2524651), wk =   0.0062500
        k(   40) = (  -0.1250000   0.1757699   0.0000000), wk =   0.0125000
        k(   41) = (  -0.1250000   0.1757699   0.1262325), wk =   0.0125000
        k(   42) = (  -0.1250000   0.1757699   0.2524651), wk =   0.0125000
        k(   43) = (   0.7500000  -0.0703080   0.0000000), wk =   0.0125000
        k(   44) = (   0.7500000  -0.0703080   0.1262325), wk =   0.0125000
        k(   45) = (   0.7500000  -0.0703080   0.2524651), wk =   0.0125000
        k(   46) = (   0.6250000  -0.0351540   0.0000000), wk =   0.0125000
        k(   47) = (   0.6250000  -0.0351540   0.1262325), wk =   0.0125000
        k(   48) = (   0.6250000  -0.0351540   0.2524651), wk =   0.0125000
        k(   49) = (   0.5000000   0.0000000   0.0000000), wk =   0.0062500
        k(   50) = (   0.5000000   0.0000000   0.1262325), wk =   0.0125000
        k(   51) = (   0.5000000   0.0000000   0.2524651), wk =   0.0125000
        k(   52) = (   0.0000000   0.2109239   0.0000000), wk =   0.0062500
        k(   53) = (   0.0000000   0.2109239   0.1262325), wk =   0.0062500
        k(   54) = (   0.0000000   0.2109239   0.2524651), wk =   0.0062500
        k(   55) = (   0.8750000  -0.0351540   0.0000000), wk =   0.0125000
        k(   56) = (   0.8750000  -0.0351540   0.1262325), wk =   0.0125000
        k(   57) = (   0.8750000  -0.0351540   0.2524651), wk =   0.0125000
        k(   58) = (   0.7500000   0.0000000   0.0000000), wk =   0.0062500
        k(   59) = (   0.7500000   0.0000000   0.1262325), wk =   0.0125000
        k(   60) = (   0.7500000   0.0000000   0.2524651), wk =   0.0125000
        k(   61) = (   0.0000000  -0.2812318   0.0000000), wk =   0.0031250
        k(   62) = (   0.0000000  -0.2812318   0.1262325), wk =   0.0062500
        k(   63) = (   0.0000000  -0.2812318   0.2524651), wk =   0.0062500
        k(   64) = (  -0.1250000  -0.0351540   0.1262325), wk =   0.0125000
        k(   65) = (  -0.1250000  -0.0351540   0.2524651), wk =   0.0125000
        k(   66) = (  -0.2500000  -0.0703080   0.1262325), wk =   0.0125000
        k(   67) = (  -0.2500000  -0.0703080   0.2524651), wk =   0.0125000
        k(   68) = (  -0.3750000  -0.1054619   0.1262325), wk =   0.0125000
        k(   69) = (  -0.3750000  -0.1054619   0.2524651), wk =   0.0125000
        k(   70) = (   0.0000000  -0.0703080   0.1262325), wk =   0.0062500
        k(   71) = (   0.0000000  -0.0703080   0.2524651), wk =   0.0062500
        k(   72) = (  -0.1250000  -0.1054619   0.1262325), wk =   0.0125000
        k(   73) = (  -0.1250000  -0.1054619   0.2524651), wk =   0.0125000
        k(   74) = (  -0.2500000  -0.1406159   0.1262325), wk =   0.0125000
        k(   75) = (  -0.2500000  -0.1406159   0.2524651), wk =   0.0125000
        k(   76) = (   0.6250000   0.1054619   0.1262325), wk =   0.0125000
        k(   77) = (   0.6250000   0.1054619   0.2524651), wk =   0.0125000
        k(   78) = (   0.5000000   0.0703080   0.1262325), wk =   0.0125000
        k(   79) = (   0.5000000   0.0703080   0.2524651), wk =   0.0125000
        k(   80) = (   0.3750000   0.0351540   0.1262325), wk =   0.0125000
        k(   81) = (   0.3750000   0.0351540   0.2524651), wk =   0.0125000
        k(   82) = (   0.0000000  -0.1406159   0.1262325), wk =   0.0062500
        k(   83) = (   0.0000000  -0.1406159   0.2524651), wk =   0.0062500
        k(   84) = (  -0.1250000  -0.1757699   0.1262325), wk =   0.0125000
        k(   85) = (  -0.1250000  -0.1757699   0.2524651), wk =   0.0125000
        k(   86) = (   0.7500000   0.0703080   0.1262325), wk =   0.0125000
        k(   87) = (   0.7500000   0.0703080   0.2524651), wk =   0.0125000
        k(   88) = (   0.6250000   0.0351540   0.1262325), wk =   0.0125000
        k(   89) = (   0.6250000   0.0351540   0.2524651), wk =   0.0125000
        k(   90) = (   0.0000000  -0.2109239   0.1262325), wk =   0.0062500
        k(   91) = (   0.0000000  -0.2109239   0.2524651), wk =   0.0062500
        k(   92) = (   0.8750000   0.0351540   0.1262325), wk =   0.0125000
        k(   93) = (   0.8750000   0.0351540   0.2524651), wk =   0.0125000

                       cryst. coord.
        k(    1) = (   0.0000000   0.0000000   0.0000000), wk =   0.0031250
        k(    2) = (   0.0000000   0.0000000   0.2000000), wk =   0.0062500
        k(    3) = (   0.0000000   0.0000000   0.4000000), wk =   0.0062500
        k(    4) = (  -0.0000000   0.1250000   0.0000000), wk =   0.0125000
        k(    5) = (  -0.0000000   0.1250000   0.2000000), wk =   0.0125000
        k(    6) = (  -0.0000000   0.1250000   0.4000000), wk =   0.0125000
        k(    7) = (  -0.0000000   0.2500000   0.0000000), wk =   0.0125000
        k(    8) = (  -0.0000000   0.2500000   0.2000000), wk =   0.0125000
        k(    9) = (  -0.0000000   0.2500000   0.4000000), wk =   0.0125000
        k(   10) = (   0.0000000   0.3750000   0.0000000), wk =   0.0125000
        k(   11) = (   0.0000000   0.3750000   0.2000000), wk =   0.0125000
        k(   12) = (   0.0000000   0.3750000   0.4000000), wk =   0.0125000
        k(   13) = (   0.0000000  -0.5000000   0.0000000), wk =   0.0062500
        k(   14) = (   0.0000000  -0.5000000   0.2000000), wk =   0.0125000
        k(   15) = (   0.0000000  -0.5000000   0.4000000), wk =   0.0125000
        k(   16) = (   0.1250000   0.1250000   0.0000000), wk =   0.0062500
        k(   17) = (   0.1250000   0.1250000   0.2000000), wk =   0.0062500
        k(   18) = (   0.1250000   0.1250000   0.4000000), wk =   0.0062500
        k(   19) = (   0.1250000   0.2500000   0.0000000), wk =   0.0125000
        k(   20) = (   0.1250000   0.2500000   0.2000000), wk =   0.0125000
        k(   21) = (   0.1250000   0.2500000   0.4000000), wk =   0.0125000
        k(   22) = (   0.1250000   0.3750000   0.0000000), wk =   0.0125000
        k(   23) = (   0.1250000   0.3750000   0.2000000), wk =   0.0125000
        k(   24) = (   0.1250000   0.3750000   0.4000000), wk =   0.0125000
        k(   25) = (   0.1250000  -0.5000000   0.0000000), wk =   0.0125000
        k(   26) = (   0.1250000  -0.5000000   0.2000000), wk =   0.0125000
        k(   27) = (   0.1250000  -0.5000000   0.4000000), wk =   0.0125000
        k(   28) = (   0.1250000  -0.3750000   0.0000000), wk =   0.0125000
        k(   29) = (   0.1250000  -0.3750000   0.2000000), wk =   0.0125000
        k(   30) = (   0.1250000  -0.3750000   0.4000000), wk =   0.0125000
        k(   31) = (   0.1250000  -0.2500000   0.0000000), wk =   0.0125000
        k(   32) = (   0.1250000  -0.2500000   0.2000000), wk =   0.0125000
        k(   33) = (   0.1250000  -0.2500000   0.4000000), wk =   0.0125000
        k(   34) = (   0.1250000  -0.1250000   0.0000000), wk =   0.0062500
        k(   35) = (   0.1250000  -0.1250000   0.2000000), wk =   0.0125000
        k(   36) = (   0.1250000  -0.1250000   0.4000000), wk =   0.0125000
        k(   37) = (   0.2500000   0.2500000   0.0000000), wk =   0.0062500
        k(   38) = (   0.2500000   0.2500000   0.2000000), wk =   0.0062500
        k(   39) = (   0.2500000   0.2500000   0.4000000), wk =   0.0062500
        k(   40) = (   0.2500000   0.3750000   0.0000000), wk =   0.0125000
        k(   41) = (   0.2500000   0.3750000   0.2000000), wk =   0.0125000
        k(   42) = (   0.2500000   0.3750000   0.4000000), wk =   0.0125000
        k(   43) = (   0.2500000  -0.5000000   0.0000000), wk =   0.0125000
        k(   44) = (   0.2500000  -0.5000000   0.2000000), wk =   0.0125000
        k(   45) = (   0.2500000  -0.5000000   0.4000000), wk =   0.0125000
        k(   46) = (   0.2500000  -0.3750000   0.0000000), wk =   0.0125000
        k(   47) = (   0.2500000  -0.3750000   0.2000000), wk =   0.0125000
        k(   48) = (   0.2500000  -0.3750000   0.4000000), wk =   0.0125000
        k(   49) = (   0.2500000  -0.2500000   0.0000000), wk =   0.0062500
        k(   50) = (   0.2500000  -0.2500000   0.2000000), wk =   0.0125000
        k(   51) = (   0.2500000  -0.2500000   0.4000000), wk =   0.0125000
        k(   52) = (   0.3750000   0.3750000   0.0000000), wk =   0.0062500
        k(   53) = (   0.3750000   0.3750000   0.2000000), wk =   0.0062500
        k(   54) = (   0.3750000   0.3750000   0.4000000), wk =   0.0062500
        k(   55) = (   0.3750000  -0.5000000   0.0000000), wk =   0.0125000
        k(   56) = (   0.3750000  -0.5000000   0.2000000), wk =   0.0125000
        k(   57) = (   0.3750000  -0.5000000   0.4000000), wk =   0.0125000
        k(   58) = (   0.3750000  -0.3750000   0.0000000), wk =   0.0062500
        k(   59) = (   0.3750000  -0.3750000   0.2000000), wk =   0.0125000
        k(   60) = (   0.3750000  -0.3750000   0.4000000), wk =   0.0125000
        k(   61) = (  -0.5000000  -0.5000000   0.0000000), wk =   0.0031250
        k(   62) = (  -0.5000000  -0.5000000   0.2000000), wk =   0.0062500
        k(   63) = (  -0.5000000  -0.5000000   0.4000000), wk =   0.0062500
        k(   64) = (  -0.1250000   0.0000000   0.2000000), wk =   0.0125000
        k(   65) = (  -0.1250000   0.0000000   0.4000000), wk =   0.0125000
        k(   66) = (  -0.2500000   0.0000000   0.2000000), wk =   0.0125000
        k(   67) = (  -0.2500000   0.0000000   0.4000000), wk =   0.0125000
        k(   68) = (  -0.3750000   0.0000000   0.2000000), wk =   0.0125000
        k(   69) = (  -0.3750000   0.0000000   0.4000000), wk =   0.0125000
        k(   70) = (  -0.1250000  -0.1250000   0.2000000), wk =   0.0062500
        k(   71) = (  -0.1250000  -0.1250000   0.4000000), wk =   0.0062500
        k(   72) = (  -0.2500000  -0.1250000   0.2000000), wk =   0.0125000
        k(   73) = (  -0.2500000  -0.1250000   0.4000000), wk =   0.0125000
        k(   74) = (  -0.3750000  -0.1250000   0.2000000), wk =   0.0125000
        k(   75) = (  -0.3750000  -0.1250000   0.4000000), wk =   0.0125000
        k(   76) = (   0.5000000  -0.1250000   0.2000000), wk =   0.0125000
        k(   77) = (   0.5000000  -0.1250000   0.4000000), wk =   0.0125000
        k(   78) = (   0.3750000  -0.1250000   0.2000000), wk =   0.0125000
        k(   79) = (   0.3750000  -0.1250000   0.4000000), wk =   0.0125000
        k(   80) = (   0.2500000  -0.1250000   0.2000000), wk =   0.0125000
        k(   81) = (   0.2500000  -0.1250000   0.4000000), wk =   0.0125000
        k(   82) = (  -0.2500000  -0.2500000   0.2000000), wk =   0.0062500
        k(   83) = (  -0.2500000  -0.2500000   0.4000000), wk =   0.0062500
        k(   84) = (  -0.3750000  -0.2500000   0.2000000), wk =   0.0125000
        k(   85) = (  -0.3750000  -0.2500000   0.4000000), wk =   0.0125000
        k(   86) = (   0.5000000  -0.2500000   0.2000000), wk =   0.0125000
        k(   87) = (   0.5000000  -0.2500000   0.4000000), wk =   0.0125000
        k(   88) = (   0.3750000  -0.2500000   0.2000000), wk =   0.0125000
        k(   89) = (   0.3750000  -0.2500000   0.4000000), wk =   0.0125000
        k(   90) = (  -0.3750000  -0.3750000   0.2000000), wk =   0.0062500
        k(   91) = (  -0.3750000  -0.3750000   0.4000000), wk =   0.0062500
        k(   92) = (   0.5000000  -0.3750000   0.2000000), wk =   0.0125000
        k(   93) = (   0.5000000  -0.3750000   0.4000000), wk =   0.0125000

     Dense  grid:    28233 G-vectors     FFT dimensions: (  50,  50,  45)

     Estimated max dynamical RAM per process >      68.40MB

     Estimated total allocated dynamical RAM >    1094.38MB

     Check: negative/imaginary core charge=   -0.000010    0.000000

     Initial potential from superposition of free atoms

     starting charge   31.99675, renormalised to   32.00000
     Starting wfc are   68 randomized atomic wfcs

     total cpu time spent up to now is        7.5 secs

     per-process dynamical memory:    51.0 Mb

     Self-consistent Calculation

     iteration #  1     ecut=    50.00 Ry     beta=0.30
     Davidson diagonalization with overlap
     ethr =  1.00E-02,  avg # of iterations =  3.0

     total cpu time spent up to now is       20.1 secs

     total energy              =    -114.18738611 Ry
     Harris-Foulkes estimate   =    -114.39266648 Ry
     estimated scf accuracy    <       0.51027970 Ry

     iteration #  2     ecut=    50.00 Ry     beta=0.30
     Davidson diagonalization with overlap
     ethr =  1.59E-03,  avg # of iterations =  2.2

     total cpu time spent up to now is       30.4 secs

     total energy              =    -114.28376936 Ry
     Harris-Foulkes estimate   =    -114.30686189 Ry
     estimated scf accuracy    <       0.08625910 Ry

     iteration #  3     ecut=    50.00 Ry     beta=0.30
     Davidson diagonalization with overlap
     ethr =  2.70E-04,  avg # of iterations =  2.1

     total cpu time spent up to now is       39.6 secs

     total energy              =    -114.28881655 Ry
     Harris-Foulkes estimate   =    -114.29589407 Ry
     estimated scf accuracy    <       0.02457407 Ry

     iteration #  4     ecut=    50.00 Ry     beta=0.30
     Davidson diagonalization with overlap
     ethr =  7.68E-05,  avg # of iterations =  3.2

     total cpu time spent up to now is       50.2 secs

     total energy              =    -114.29055957 Ry
     Harris-Foulkes estimate   =    -114.29248333 Ry
     estimated scf accuracy    <       0.00523011 Ry

     iteration #  5     ecut=    50.00 Ry     beta=0.30
     Davidson diagonalization with overlap
     ethr =  1.63E-05,  avg # of iterations =  5.7

     total cpu time spent up to now is       63.6 secs

     total energy              =    -114.29139997 Ry
     Harris-Foulkes estimate   =    -114.29199843 Ry
     estimated scf accuracy    <       0.00109786 Ry

     iteration #  6     ecut=    50.00 Ry     beta=0.30
     Davidson diagonalization with overlap
     ethr =  3.43E-06,  avg # of iterations =  4.4

     total cpu time spent up to now is       77.7 secs

     total energy              =    -114.29148450 Ry
     Harris-Foulkes estimate   =    -114.29213244 Ry
     estimated scf accuracy    <       0.00166120 Ry

     iteration #  7     ecut=    50.00 Ry     beta=0.30
     Davidson diagonalization with overlap
     ethr =  3.43E-06,  avg # of iterations =  2.6

     total cpu time spent up to now is       88.6 secs

     total energy              =    -114.29180823 Ry
     Harris-Foulkes estimate   =    -114.29183202 Ry
     estimated scf accuracy    <       0.00005768 Ry

     iteration #  8     ecut=    50.00 Ry     beta=0.30
     Davidson diagonalization with overlap
     ethr =  1.80E-07,  avg # of iterations =  3.5

     total cpu time spent up to now is      101.0 secs

     total energy              =    -114.29183543 Ry
     Harris-Foulkes estimate   =    -114.29183748 Ry
     estimated scf accuracy    <       0.00000574 Ry

     iteration #  9     ecut=    50.00 Ry     beta=0.30
     Davidson diagonalization with overlap
     ethr =  1.79E-08,  avg # of iterations =  2.6

     total cpu time spent up to now is      111.4 secs

     total energy              =    -114.29183659 Ry
     Harris-Foulkes estimate   =    -114.29183670 Ry
     estimated scf accuracy    <       0.00000134 Ry

     iteration # 10     ecut=    50.00 Ry     beta=0.30
     Davidson diagonalization with overlap
     ethr =  4.19E-09,  avg # of iterations =  3.3

     total cpu time spent up to now is      122.4 secs

     total energy              =    -114.29183656 Ry
     Harris-Foulkes estimate   =    -114.29183690 Ry
     estimated scf accuracy    <       0.00000146 Ry

     iteration # 11     ecut=    50.00 Ry     beta=0.30
     Davidson diagonalization with overlap
     ethr =  4.19E-09,  avg # of iterations =  1.4

     total cpu time spent up to now is      131.0 secs

     total energy              =    -114.29183652 Ry
     Harris-Foulkes estimate   =    -114.29183666 Ry
     estimated scf accuracy    <       0.00000033 Ry

     iteration # 12     ecut=    50.00 Ry     beta=0.30
     Davidson diagonalization with overlap
     ethr =  1.02E-09,  avg # of iterations =  3.4

     total cpu time spent up to now is      143.2 secs

     total energy              =    -114.29183663 Ry
     Harris-Foulkes estimate   =    -114.29183665 Ry
     estimated scf accuracy    <       0.00000007 Ry

     iteration # 13     ecut=    50.00 Ry     beta=0.30
     Davidson diagonalization with overlap
     ethr =  2.08E-10,  avg # of iterations =  1.4

     total cpu time spent up to now is      151.7 secs

     total energy              =    -114.29183663 Ry
     Harris-Foulkes estimate   =    -114.29183664 Ry
     estimated scf accuracy    <       0.00000002 Ry

     iteration # 14     ecut=    50.00 Ry     beta=0.30
     Davidson diagonalization with overlap
     ethr =  5.32E-11,  avg # of iterations =  3.3

     total cpu time spent up to now is      163.8 secs

     End of self-consistent calculation

          k = 0.0000 0.0000 0.0000 (  3565 PWs)   bands (ev):

    -2.5890  -2.5890  -0.0497  -0.0497   2.1338   2.1338   2.8515   2.8515
     5.6437   5.6437   6.2470   6.2470   7.2900   7.2900   7.8088   7.8088
     8.5051   8.5051   9.9289   9.9289  10.0190  10.0190  10.0398  10.0398
    10.2958  10.2958  10.8974  10.8974  11.1896  11.1896  11.4560  11.4560
    12.7214  12.7214  13.4670  13.4670  13.6882  13.6882  14.1830  14.1830

     occupation numbers 
     1.0000   1.0000   1.0000   1.0000   1.0000   1.0000   1.0000   1.0000
     1.0000   1.0000   1.0000   1.0000   1.0000   1.0000   1.0000   1.0000
     1.0000   1.0000   1.0000   1.0000   1.0000   1.0000   1.0000   1.0000
     1.0000   1.0000   1.0000   1.0000   1.0000   1.0000   1.0000   1.0000
     0.0000   0.0000   0.0000   0.0000   0.0000   0.0000   0.0000   0.0000

          k = 0.0000 0.0000 0.1262 (  3533 PWs)   bands (ev):

    -2.3709  -2.3709  -0.2357  -0.2357   2.2009   2.2009   2.4478   2.4478
     5.5808   5.5808   6.1523   6.1523   6.7461   6.7461   8.6605   8.6605
     8.9759   8.9759   9.4823   9.4823   9.6919   9.6919  10.1290  10.1290
    10.9701  10.9701  10.9915  10.9915  11.1419  11.1419  11.7995  11.7995
    12.9162  12.9162  13.5288  13.5288  13.9594  13.9594  14.5938  14.5938

     occupation numbers 
     1.0000   1.0000   1.0000   1.0000   1.0000   1.0000   1.0000   1.0000
     1.0000   1.0000   1.0000   1.0000   1.0000   1.0000   1.0000   1.0000
     1.0000   1.0000   1.0000   1.0000   1.0000   1.0000   1.0000   1.0000
     1.0000   1.0000   1.0000   1.0000   1.0000   1.0000   1.0000   1.0000
     0.0000   0.0000   0.0000   0.0000   0.0000   0.0000   0.0000   0.0000

          k = 0.0000 0.0000 0.2525 (  3545 PWs)   bands (ev):

    -1.7565  -1.7565  -0.9084  -0.9084   2.2504   2.2504   2.3001   2.3001
     5.0556   5.0556   5.1793   5.1793   8.1893   8.1893   8.9293   8.9293
     9.2104   9.2104   9.2994   9.2994   9.5457   9.5457  10.0123  10.0123
    11.1992  11.1993  11.2193  11.2193  11.7697  11.7697  12.0878  12.0878
    13.2875  13.2875  13.4940  13.4940  14.4986  14.4986  14.6493  14.6493

     occupation numbers 
     1.0000   1.0000   1.0000   1.0000   1.0000   1.0000   1.0000   1.0000
     1.0000   1.0000   1.0000   1.0000   1.0000   1.0000   1.0000   1.0000
     1.0000   1.0000   1.0000   1.0000   1.0000   1.0000   1.0000   1.0000
     1.0000   1.0000   1.0000   1.0000   1.0000   1.0000   1.0000   1.0000
     0.0000   0.0000   0.0000   0.0000   0.0000   0.0000   0.0000   0.0000

          k =-0.1250 0.0352 0.0000 (  3550 PWs)   bands (ev):

    -2.3697  -2.3690   0.0435   0.0451   2.2235   2.2305   2.8809   2.8919
     5.8139   5.8274   6.5014   6.5078   7.4009   7.4196   7.6846   7.7083
     8.4749   8.4992   8.9605   8.9659   9.1541   9.1768   9.9117   9.9334
    10.1600  10.1981  10.7009  10.7898  11.3765  11.3901  11.7051  11.7792
    13.0382  13.0581  13.3171  13.3386  13.8868  13.9463  14.1767  14.2420

     occupation numbers 
     1.0000   1.0000   1.0000   1.0000   1.0000   1.0000   1.0000   1.0000
     1.0000   1.0000   1.0000   1.0000   1.0000   1.0000   1.0000   1.0000
     1.0000   1.0000   1.0000   1.0000   1.0000   1.0000   1.0000   1.0000
     1.0000   1.0000   1.0000   1.0000   1.0000   1.0000   1.0000   1.0000
     0.0000   0.0000   0.0000   0.0000   0.0000   0.0000   0.0000   0.0000

          k =-0.1250 0.0352 0.1262 (  3536 PWs)   bands (ev):

    -2.1614  -2.1610  -0.1400  -0.1393   2.2091   2.2167   2.6349   2.6449
     5.6276   5.6402   6.3723   6.3837   6.8719   6.8747   8.4411   8.4616
     8.7328   8.7442   9.1472   9.1763   9.4092   9.4165   9.9962  10.0170
    10.3563  10.3909  10.6110  10.6534  11.3273  11.3557  11.6678  11.7213
    13.2054  13.2292  13.3687  13.3821  14.1271  14.1474  14.2935  14.3405

     occupation numbers 
     1.0000   1.0000   1.0000   1.0000   1.0000   1.0000   1.0000   1.0000
     1.0000   1.0000   1.0000   1.0000   1.0000   1.0000   1.0000   1.0000
     1.0000   1.0000   1.0000   1.0000   1.0000   1.0000   1.0000   1.0000
     1.0000   1.0000   1.0000   1.0000   1.0000   1.0000   1.0000   1.0000
     0.0000   0.0000   0.0000   0.0000   0.0000   0.0000   0.0000   0.0000

          k =-0.1250 0.0352 0.2525 (  3530 PWs)   bands (ev):

    -1.5775  -1.5772  -0.7777  -0.7766   2.2608   2.2735   2.4690   2.4838
     5.1599   5.1753   5.4439   5.4577   8.0299   8.0345   8.6524   8.6826
     8.9042   8.9066   9.0757   9.1091   9.6382   9.6509   9.9988  10.0067
    10.9226  10.9604  11.0196  11.0616  11.2811  11.3326  11.6115  11.6623
    13.4409  13.4628  13.6217  13.6509  14.0982  14.1134  14.2850  14.3049

     occupation numbers 
     1.0000   1.0000   1.0000   1.0000   1.0000   1.0000   1.0000   1.0000
     1.0000   1.0000   1.0000   1.0000   1.0000   1.0000   1.0000   1.0000
     1.0000   1.0000   1.0000   1.0000   1.0000   1.0000   1.0000   1.0000
     1.0000   1.0000   1.0000   1.0000   1.0000   1.0000   1.0000   1.0000
     0.0000   0.0000   0.0000   0.0000   0.0000   0.0000   0.0000   0.0000

          k =-0.2500 0.0703 0.0000 (  3536 PWs)   bands (ev):

    -1.7546  -1.7531   0.2800   0.2817   2.4725   2.4801   2.9472   2.9604
     6.0182   6.0196   7.1003   7.1064   7.2393   7.2426   7.5054   7.5210
     7.5779   7.5957   8.1413   8.1580   8.6894   8.6985   9.5577   9.5928
     9.7973   9.8152  10.2950  10.3496  11.3509  11.3738  12.1185  12.1514
    13.0850  13.0985  13.4620  13.4779  14.1403  14.1713  14.6626  14.6902

     occupation numbers 
     1.0000   1.0000   1.0000   1.0000   1.0000   1.0000   1.0000   1.0000
     1.0000   1.0000   1.0000   1.0000   1.0000   1.0000   1.0000   1.0000
     1.0000   1.0000   1.0000   1.0000   1.0000   1.0000   1.0000   1.0000
     1.0000   1.0000   1.0000   1.0000   1.0000   1.0000   1.0000   1.0000
     0.0000   0.0000   0.0000   0.0000   0.0000   0.0000   0.0000   0.0000

          k =-0.2500 0.0703 0.1262 (  3529 PWs)   bands (ev):

    -1.5802  -1.5791   0.0962   0.0972   2.3815   2.3909   2.9663   2.9782
     5.6829   5.6928   6.6495   6.6581   7.1617   7.1654   7.7103   7.7327
     8.0801   8.1024   8.6344   8.6394   9.0237   9.0518   9.5513   9.5751
     9.8459   9.8697  10.0907  10.1434  11.3289  11.3374  11.7843  11.8253
    12.9401  12.9667  13.5161  13.5486  14.2272  14.2649  14.7461  14.7765

     occupation numbers 
     1.0000   1.0000   1.0000   1.0000   1.0000   1.0000   1.0000   1.0000
     1.0000   1.0000   1.0000   1.0000   1.0000   1.0000   1.0000   1.0000
     1.0000   1.0000   1.0000   1.0000   1.0000   1.0000   1.0000   1.0000
     1.0000   1.0000   1.0000   1.0000   1.0000   1.0000   1.0000   1.0000
     0.0000   0.0000   0.0000   0.0000   0.0000   0.0000   0.0000   0.0000

          k =-0.2500 0.0703 0.2525 (  3515 PWs)   bands (ev):

    -1.0970  -1.0967  -0.4458  -0.4442   2.4748   2.4877   2.7885   2.8030
     5.5164   5.5302   5.9394   5.9521   7.4778   7.4902   7.8166   7.8327
     8.6191   8.6393   8.8912   8.8991   9.2662   9.2772   9.5969   9.6034
    10.1607  10.1891  10.2931  10.3335  11.1230  11.1716  11.3493  11.4039
    13.0511  13.0838  13.5833  13.6236  14.1345  14.1598  14.5736  14.6087

     occupation numbers 
     1.0000   1.0000   1.0000   1.0000   1.0000   1.0000   1.0000   1.0000
     1.0000   1.0000   1.0000   1.0000   1.0000   1.0000   1.0000   1.0000
     1.0000   1.0000   1.0000   1.0000   1.0000   1.0000   1.0000   1.0000
     1.0000   1.0000   1.0000   1.0000   1.0000   1.0000   1.0000   1.0000
     0.0000   0.0000   0.0000   0.0000   0.0000   0.0000   0.0000   0.0000

          k =-0.3750 0.1055 0.0000 (  3530 PWs)   bands (ev):

    -0.9111  -0.9088   0.4923   0.4927   2.7172   2.7241   3.0085   3.0168
     5.4306   5.4373   6.3196   6.3240   6.6953   6.7170   7.4600   7.4745
     7.8428   7.8687   8.4696   8.5103   8.8007   8.8279   9.2338   9.2758
     9.4804   9.5411   9.9264   9.9639  10.9779  11.0040  12.3443  12.3521
    13.5580  13.6109  13.8001  13.8401  14.1904  14.2022  15.0061  15.0675

     occupation numbers 
     1.0000   1.0000   1.0000   1.0000   1.0000   1.0000   1.0000   1.0000
     1.0000   1.0000   1.0000   1.0000   1.0000   1.0000   1.0000   1.0000
     1.0000   1.0000   1.0000   1.0000   1.0000   1.0000   1.0000   1.0000
     1.0000   1.0000   1.0000   1.0000   1.0000   1.0000   0.2559   0.0710
     0.0000   0.0000   0.0000   0.0000   0.0000   0.0000   0.0000   0.0000

          k =-0.3750 0.1055 0.1262 (  3526 PWs)   bands (ev):

    -0.8061  -0.8044   0.3106   0.3121   2.6720   2.6814   3.1775   3.1842
     5.6095   5.6130   5.9939   6.0068   6.9125   6.9316   7.2436   7.2530
     8.0440   8.0816   8.6979   8.7105   8.7935   8.8151   9.1865   9.2030
     9.5135   9.5286   9.6727   9.6957  11.0886  11.1068  12.0312  12.0558
    13.4319  13.4682  14.0101  14.0422  14.4543  14.4826  14.6021  14.6496

     occupation numbers 
     1.0000   1.0000   1.0000   1.0000   1.0000   1.0000   1.0000   1.0000
     1.0000   1.0000   1.0000   1.0000   1.0000   1.0000   1.0000   1.0000
     1.0000   1.0000   1.0000   1.0000   1.0000   1.0000   1.0000   1.0000
     1.0000   1.0000   1.0000   1.0000   1.0000   1.0000   1.0000   1.0000
     0.0000   0.0000   0.0000   0.0000   0.0000   0.0000   0.0000   0.0000

          k =-0.3750 0.1055 0.2525 (  3525 PWs)   bands (ev):

    -0.5131  -0.5126  -0.0979  -0.0965   2.8469   2.8544   3.1421   3.1471
     5.7733   5.7915   6.0471   6.0617   6.7467   6.7705   7.2039   7.2356
     8.2646   8.3016   8.5109   8.5242   8.9653   8.9682   9.0832   9.1149
     9.4927   9.5275   9.7276   9.7541  11.1713  11.2019  11.4780  11.5105
    13.5609  13.5881  13.8806  13.9284  14.1782  14.1976  14.3588  14.4026

     occupation numbers 
     1.0000   1.0000   1.0000   1.0000   1.0000   1.0000   1.0000   1.0000
     1.0000   1.0000   1.0000   1.0000   1.0000   1.0000   1.0000   1.0000
     1.0000   1.0000   1.0000   1.0000   1.0000   1.0000   1.0000   1.0000
     1.0000   1.0000   1.0000   1.0000   1.0000   1.0000   1.0000   1.0000
     0.0000   0.0000   0.0000   0.0000   0.0000   0.0000   0.0000   0.0000

          k = 0.5000-0.1406 0.0000 (  3522 PWs)   bands (ev):

    -0.3731  -0.3731   0.4887   0.4887   2.7751   2.7751   3.0532   3.0532
     4.9143   4.9143   5.9666   5.9666   6.7590   6.7590   7.2939   7.2939
     8.2211   8.2211   8.5094   8.5094   8.6548   8.6548   9.0620   9.0620
     9.6179   9.6179   9.9181   9.9181  10.8969  10.8969  12.5060  12.5060
    13.5088  13.5088  14.1793  14.1794  14.4496  14.4496  14.9775  14.9776

     occupation numbers 
     1.0000   1.0000   1.0000   1.0000   1.0000   1.0000   1.0000   1.0000
     1.0000   1.0000   1.0000   1.0000   1.0000   1.0000   1.0000   1.0000
     1.0000   1.0000   1.0000   1.0000   1.0000   1.0000   1.0000   1.0000
     1.0000   1.0000   1.0000   1.0000   1.0000   1.0000   0.0000   0.0000
     0.0000   0.0000   0.0000   0.0000   0.0000   0.0000   0.0000   0.0000

          k = 0.5000-0.1406 0.1262 (  3534 PWs)   bands (ev):

    -0.3391  -0.3385   0.3376   0.3382   2.8943   2.9081   3.1101   3.1162
     5.3111   5.3157   5.8896   5.9133   6.8450   6.8485   6.9145   6.9145
     7.8911   7.9039   8.5076   8.5227   8.9279   8.9385   9.1561   9.1686
     9.5492   9.5620   9.7244   9.7351  10.9567  10.9643  12.2122  12.2158
    13.7268  13.7498  14.2794  14.2960  14.3652  14.3754  14.7443  14.7815

     occupation numbers 
     1.0000   1.0000   1.0000   1.0000   1.0000   1.0000   1.0000   1.0000
     1.0000   1.0000   1.0000   1.0000   1.0000   1.0000   1.0000   1.0000
     1.0000   1.0000   1.0000   1.0000   1.0000   1.0000   1.0000   1.0000
     1.0000   1.0000   1.0000   1.0000   1.0000   1.0000   1.0000   1.0000
     0.0000   0.0000   0.0000   0.0000   0.0000   0.0000   0.0000   0.0000

          k = 0.5000-0.1406 0.2525 (  3528 PWs)   bands (ev):

    -0.2115  -0.2113   0.0356   0.0360   3.1511   3.1718   3.2329   3.2479
     5.7522   5.7789   5.8918   5.8970   6.4142   6.4177   6.8901   6.8961
     8.2277   8.2344   8.5104   8.5278   8.8336   8.8345   9.1625   9.1932
     9.2593   9.2806   9.3075   9.3229  11.1859  11.1870  11.6016  11.6027
    13.7284  13.7608  13.9482  13.9726  14.4057  14.4559  14.5223  14.5696

     occupation numbers 
     1.0000   1.0000   1.0000   1.0000   1.0000   1.0000   1.0000   1.0000
     1.0000   1.0000   1.0000   1.0000   1.0000   1.0000   1.0000   1.0000
     1.0000   1.0000   1.0000   1.0000   1.0000   1.0000   1.0000   1.0000
     1.0000   1.0000   1.0000   1.0000   1.0000   1.0000   1.0000   1.0000
     0.0000   0.0000   0.0000   0.0000   0.0000   0.0000   0.0000   0.0000

          k = 0.0000 0.0703 0.0000 (  3550 PWs)   bands (ev):

    -2.5207  -2.5203  -0.2045  -0.2018   2.1957   2.2066   2.8530   2.8615
     5.6029   5.6115   6.3047   6.3158   7.1331   7.1366   7.7262   7.7427
     8.7278   8.7639   9.9048   9.9422  10.0584  10.0611  10.0809  10.1106
    10.2979  10.2982  10.7954  10.8131  11.3303  11.3922  11.5161  11.5170
    12.7420  12.7471  13.3054  13.3082  13.3746  13.4062  14.2514  14.2629

     occupation numbers 
     1.0000   1.0000   1.0000   1.0000   1.0000   1.0000   1.0000   1.0000
     1.0000   1.0000   1.0000   1.0000   1.0000   1.0000   1.0000   1.0000
     1.0000   1.0000   1.0000   1.0000   1.0000   1.0000   1.0000   1.0000
     1.0000   1.0000   1.0000   1.0000   1.0000   1.0000   1.0000   1.0000
     0.0000   0.0000   0.0000   0.0000   0.0000   0.0000   0.0000   0.0000

          k = 0.0000 0.0703 0.1262 (  3540 PWs)   bands (ev):

    -2.3043  -2.3041  -0.3148  -0.3134   1.9699   1.9750   2.6152   2.6266
     5.4075   5.4220   6.5147   6.5290   6.7796   6.7834   8.3654   8.3717
     9.1239   9.1524   9.5073   9.5095   9.7308   9.7313  10.0704  10.0832
    10.8318  10.8368  10.9208  10.9313  11.3469  11.3899  11.8410  11.8432
    12.9123  12.9146  13.5312  13.5644  13.5801  13.5987  14.6081  14.6113

     occupation numbers 
     1.0000   1.0000   1.0000   1.0000   1.0000   1.0000   1.0000   1.0000
     1.0000   1.0000   1.0000   1.0000   1.0000   1.0000   1.0000   1.0000
     1.0000   1.0000   1.0000   1.0000   1.0000   1.0000   1.0000   1.0000
     1.0000   1.0000   1.0000   1.0000   1.0000   1.0000   1.0000   1.0000
     0.0000   0.0000   0.0000   0.0000   0.0000   0.0000   0.0000   0.0000

          k = 0.0000 0.0703 0.2525 (  3545 PWs)   bands (ev):

    -1.6977  -1.6976  -0.8812  -0.8809   1.8904   1.8953   2.2822   2.2897
     5.1224   5.1284   5.6072   5.6126   8.1481   8.1488   8.8424   8.8454
     9.2447   9.2456   9.3353   9.3360   9.5654   9.5855   9.9923   9.9956
    10.8786  10.9126  11.3246  11.3537  11.6446  11.6481  12.0277  12.0280
    13.2667  13.2708  13.5521  13.5796  14.2443  14.2609  15.0215  15.0305

     occupation numbers 
     1.0000   1.0000   1.0000   1.0000   1.0000   1.0000   1.0000   1.0000
     1.0000   1.0000   1.0000   1.0000   1.0000   1.0000   1.0000   1.0000
     1.0000   1.0000   1.0000   1.0000   1.0000   1.0000   1.0000   1.0000
     1.0000   1.0000   1.0000   1.0000   1.0000   1.0000   1.0000   1.0000
     0.0000   0.0000   0.0000   0.0000   0.0000   0.0000   0.0000   0.0000

          k =-0.1250 0.1055 0.0000 (  3544 PWs)   bands (ev):

    -2.2372  -2.2363  -0.2380  -0.2350   2.3632   2.3751   2.8956   2.9082
     5.6597   5.6697   6.6164   6.6284   7.0590   7.0598   7.8173   7.8254
     8.6388   8.6590   9.0445   9.0513   9.3035   9.3372   9.8380   9.8760
    10.2887  10.3351  10.6802  10.7643  11.4543  11.4723  11.7992  11.8724
    12.6420  12.6500  13.2141  13.2339  13.8857  13.9499  14.4226  14.4898

     occupation numbers 
     1.0000   1.0000   1.0000   1.0000   1.0000   1.0000   1.0000   1.0000
     1.0000   1.0000   1.0000   1.0000   1.0000   1.0000   1.0000   1.0000
     1.0000   1.0000   1.0000   1.0000   1.0000   1.0000   1.0000   1.0000
     1.0000   1.0000   1.0000   1.0000   1.0000   1.0000   1.0000   1.0000
     0.0000   0.0000   0.0000   0.0000   0.0000   0.0000   0.0000   0.0000

          k =-0.1250 0.1055 0.1262 (  3530 PWs)   bands (ev):

    -2.0331  -2.0326  -0.2983  -0.2968   1.9979   2.0048   2.7515   2.7656
     5.4594   5.4760   6.8655   6.8787   7.0118   7.0188   8.0922   8.1121
     8.7543   8.7635   9.0162   9.0443   9.6115   9.6454   9.9239   9.9655
    10.4227  10.4705  10.5445  10.6066  11.3655  11.3932  11.6867  11.7528
    12.8059  12.8377  13.3262  13.3564  14.2207  14.2526  14.5725  14.6312

     occupation numbers 
     1.0000   1.0000   1.0000   1.0000   1.0000   1.0000   1.0000   1.0000
     1.0000   1.0000   1.0000   1.0000   1.0000   1.0000   1.0000   1.0000
     1.0000   1.0000   1.0000   1.0000   1.0000   1.0000   1.0000   1.0000
     1.0000   1.0000   1.0000   1.0000   1.0000   1.0000   1.0000   1.0000
     0.0000   0.0000   0.0000   0.0000   0.0000   0.0000   0.0000   0.0000

          k =-0.1250 0.1055 0.2525 (  3526 PWs)   bands (ev):

    -1.4674  -1.4670  -0.7370  -0.7358   1.8338   1.8429   2.2804   2.2923
     5.4402   5.4534   6.0637   6.0754   7.9803   7.9881   8.5352   8.5653
     8.9280   8.9388   9.0305   9.0713   9.6676   9.6965   9.9504   9.9690
    10.6372  10.6875  10.8338  10.8798  11.2027  11.2317  11.5259  11.5698
    13.3768  13.4115  13.6741  13.6990  14.2437  14.2666  14.5664  14.5956

     occupation numbers 
     1.0000   1.0000   1.0000   1.0000   1.0000   1.0000   1.0000   1.0000
     1.0000   1.0000   1.0000   1.0000   1.0000   1.0000   1.0000   1.0000
     1.0000   1.0000   1.0000   1.0000   1.0000   1.0000   1.0000   1.0000
     1.0000   1.0000   1.0000   1.0000   1.0000   1.0000   1.0000   1.0000
     0.0000   0.0000   0.0000   0.0000   0.0000   0.0000   0.0000   0.0000

          k =-0.2500 0.1406 0.0000 (  3539 PWs)   bands (ev):

    -1.5756  -1.5740  -0.0632  -0.0612   2.6842   2.6907   2.9845   2.9970
     5.7433   5.7441   6.8581   6.8624   7.1627   7.1726   7.3369   7.3414
     7.9248   7.9345   8.2981   8.3127   9.0350   9.0533   9.3183   9.3529
    10.0201  10.0340  10.4647  10.5378  11.1182  11.1511  11.9609  11.9834
    12.7496  12.7514  13.9489  13.9928  14.0496  14.0858  14.7758  14.8050

     occupation numbers 
     1.0000   1.0000   1.0000   1.0000   1.0000   1.0000   1.0000   1.0000
     1.0000   1.0000   1.0000   1.0000   1.0000   1.0000   1.0000   1.0000
     1.0000   1.0000   1.0000   1.0000   1.0000   1.0000   1.0000   1.0000
     1.0000   1.0000   1.0000   1.0000   1.0000   1.0000   1.0000   1.0000
     0.0000   0.0000   0.0000   0.0000   0.0000   0.0000   0.0000   0.0000

          k =-0.2500 0.1406 0.1262 (  3527 PWs)   bands (ev):

    -1.4103  -1.4092  -0.1157  -0.1146   2.3105   2.3194   2.9641   2.9762
     5.6361   5.6431   6.8781   6.8860   7.2881   7.2935   7.6704   7.6845
     7.9475   7.9604   8.5274   8.5527   9.2661   9.2970   9.4166   9.4443
     9.8493   9.8651  10.1648  10.2248  11.1110  11.1329  11.7120  11.7564
    12.6703  12.6925  13.8575  13.8961  14.5096  14.5217  14.7829  14.8166

     occupation numbers 
     1.0000   1.0000   1.0000   1.0000   1.0000   1.0000   1.0000   1.0000
     1.0000   1.0000   1.0000   1.0000   1.0000   1.0000   1.0000   1.0000
     1.0000   1.0000   1.0000   1.0000   1.0000   1.0000   1.0000   1.0000
     1.0000   1.0000   1.0000   1.0000   1.0000   1.0000   1.0000   1.0000
     0.0000   0.0000   0.0000   0.0000   0.0000   0.0000   0.0000   0.0000

          k =-0.2500 0.1406 0.2525 (  3523 PWs)   bands (ev):

    -0.9645  -0.9639  -0.4258  -0.4239   2.1480   2.1593   2.5167   2.5286
     5.9262   5.9363   6.5742   6.5854   7.3340   7.3497   7.6304   7.6474
     8.6248   8.6490   8.9729   8.9924   9.2822   9.3113   9.4707   9.5072
     9.9470   9.9737  10.0445  10.0778  10.9083  10.9451  11.2782  11.3191
    13.1376  13.1707  13.7500  13.7877  14.4630  14.4902  14.6973  14.7128

     occupation numbers 
     1.0000   1.0000   1.0000   1.0000   1.0000   1.0000   1.0000   1.0000
     1.0000   1.0000   1.0000   1.0000   1.0000   1.0000   1.0000   1.0000
     1.0000   1.0000   1.0000   1.0000   1.0000   1.0000   1.0000   1.0000
     1.0000   1.0000   1.0000   1.0000   1.0000   1.0000   1.0000   1.0000
     0.0000   0.0000   0.0000   0.0000   0.0000   0.0000   0.0000   0.0000

          k = 0.6250-0.1055 0.0000 (  3529 PWs)   bands (ev):

    -0.7310  -0.7293   0.2054   0.2059   2.8605   2.8701   3.0636   3.0725
     5.3523   5.3547   6.1949   6.2055   6.6967   6.7139   7.1523   7.1614
     7.9704   7.9861   8.4474   8.4686   8.7957   8.8121   9.3740   9.4091
     9.7817   9.8137  10.0742  10.1356  10.7756  10.7957  12.2321  12.2470
    13.3993  13.4434  13.6973  13.7189  14.5323  14.5753  14.9770  15.0577

     occupation numbers 
     1.0000   1.0000   1.0000   1.0000   1.0000   1.0000   1.0000   1.0000
     1.0000   1.0000   1.0000   1.0000   1.0000   1.0000   1.0000   1.0000
     1.0000   1.0000   1.0000   1.0000   1.0000   1.0000   1.0000   1.0000
     1.0000   1.0000   1.0000   1.0000   1.0000   1.0000   1.0000   1.0000
     0.0000   0.0000   0.0000   0.0000   0.0000   0.0000   0.0000   0.0000

          k = 0.6250-0.1055 0.1262 (  3526 PWs)   bands (ev):

    -0.6441  -0.6430   0.1226   0.1239   2.7200   2.7311   3.1008   3.1070
     5.6819   5.6880   5.9361   5.9494   6.8884   6.9030   7.3604   7.3698
     7.7263   7.7464   8.5922   8.6216   9.0480   9.0670   9.2950   9.3287
     9.5121   9.5690   9.7480   9.7941  10.9645  10.9873  11.9120  11.9380
    13.3837  13.4147  14.0133  14.0478  14.4336  14.4824  14.8784  14.9090

     occupation numbers 
     1.0000   1.0000   1.0000   1.0000   1.0000   1.0000   1.0000   1.0000
     1.0000   1.0000   1.0000   1.0000   1.0000   1.0000   1.0000   1.0000
     1.0000   1.0000   1.0000   1.0000   1.0000   1.0000   1.0000   1.0000
     1.0000   1.0000   1.0000   1.0000   1.0000   1.0000   1.0000   1.0000
     0.0000   0.0000   0.0000   0.0000   0.0000   0.0000   0.0000   0.0000

          k = 0.6250-0.1055 0.2525 (  3526 PWs)   bands (ev):

    -0.4113  -0.4104  -0.1139  -0.1118   2.7197   2.7309   2.9427   2.9509
     5.9394   5.9486   6.3303   6.3449   6.6190   6.6361   7.2088   7.2251
     8.2811   8.3031   8.7237   8.7417   8.9691   8.9740   9.1101   9.1428
     9.3304   9.3508   9.5341   9.5507  11.0268  11.0569  11.4071  11.4347
    13.6110  13.6210  13.9920  14.0196  14.2906  14.3142  14.5033  14.5204

     occupation numbers 
     1.0000   1.0000   1.0000   1.0000   1.0000   1.0000   1.0000   1.0000
     1.0000   1.0000   1.0000   1.0000   1.0000   1.0000   1.0000   1.0000
     1.0000   1.0000   1.0000   1.0000   1.0000   1.0000   1.0000   1.0000
     1.0000   1.0000   1.0000   1.0000   1.0000   1.0000   1.0000   1.0000
     0.0000   0.0000   0.0000   0.0000   0.0000   0.0000   0.0000   0.0000

          k = 0.5000-0.0703 0.0000 (  3523 PWs)   bands (ev):

    -0.3770  -0.3749   0.4979   0.4991   2.7237   2.7260   3.0659   3.0673
     5.0676   5.0712   5.8833   5.8891   6.7619   6.7660   7.0795   7.0820
     8.2526   8.2587   8.5341   8.5572   8.7399   8.7609   9.1597   9.2072
     9.4713   9.5053   9.9757  10.0186  10.7979  10.8291  12.4798  12.4842
    13.7146  13.7226  14.1571  14.1795  14.4168  14.4559  14.8127  14.8400

     occupation numbers 
     1.0000   1.0000   1.0000   1.0000   1.0000   1.0000   1.0000   1.0000
     1.0000   1.0000   1.0000   1.0000   1.0000   1.0000   1.0000   1.0000
     1.0000   1.0000   1.0000   1.0000   1.0000   1.0000   1.0000   1.0000
     1.0000   1.0000   1.0000   1.0000   1.0000   1.0000   0.0000   0.0000
     0.0000   0.0000   0.0000   0.0000   0.0000   0.0000   0.0000   0.0000

          k = 0.5000-0.0703 0.1262 (  3525 PWs)   bands (ev):

    -0.3422  -0.3401   0.3435   0.3441   2.8542   2.8636   3.1367   3.1408
     5.3601   5.3734   5.9487   5.9686   6.6577   6.6626   7.0464   7.0624
     7.7109   7.7257   8.4424   8.4558   9.0468   9.0715   9.2276   9.2408
     9.5558   9.5729   9.7983   9.8241  10.8658  10.8809  12.1817  12.1888
    13.8296  13.8585  14.1272  14.1632  14.4515  14.5113  14.7850  14.8184

     occupation numbers 
     1.0000   1.0000   1.0000   1.0000   1.0000   1.0000   1.0000   1.0000
     1.0000   1.0000   1.0000   1.0000   1.0000   1.0000   1.0000   1.0000
     1.0000   1.0000   1.0000   1.0000   1.0000   1.0000   1.0000   1.0000
     1.0000   1.0000   1.0000   1.0000   1.0000   1.0000   1.0000   1.0000
     0.0000   0.0000   0.0000   0.0000   0.0000   0.0000   0.0000   0.0000

          k = 0.5000-0.0703 0.2525 (  3526 PWs)   bands (ev):

    -0.2132  -0.2115   0.0367   0.0376   3.1375   3.1526   3.2525   3.2635
     5.6374   5.6747   5.8981   5.9153   6.5537   6.5695   6.9931   7.0061
     7.9784   7.9954   8.5426   8.5466   8.7500   8.7758   9.0080   9.0331
     9.3525   9.3823   9.5285   9.5500  11.0944  11.1091  11.5769  11.5845
    13.8123  13.8363  14.2010  14.2182  14.4478  14.4912  14.5159  14.5386

     occupation numbers 
     1.0000   1.0000   1.0000   1.0000   1.0000   1.0000   1.0000   1.0000
     1.0000   1.0000   1.0000   1.0000   1.0000   1.0000   1.0000   1.0000
     1.0000   1.0000   1.0000   1.0000   1.0000   1.0000   1.0000   1.0000
     1.0000   1.0000   1.0000   1.0000   1.0000   1.0000   1.0000   1.0000
     0.0000   0.0000   0.0000   0.0000   0.0000   0.0000   0.0000   0.0000

          k = 0.3750-0.0352 0.0000 (  3521 PWs)   bands (ev):

    -1.0065  -1.0040   0.6811   0.6814   2.5694   2.5734   2.9838   2.9918
     5.7444   5.7548   6.1128   6.1231   6.9516   6.9580   7.1805   7.1856
     7.9815   7.9948   8.5809   8.6177   8.8263   8.8457   9.0914   9.1113
     9.3402   9.3899   9.8880   9.9256  11.0849  11.1195  12.3802  12.3911
    13.7506  13.7772  13.8730  13.9028  14.1107  14.1616  14.6137  14.6689

     occupation numbers 
     1.0000   1.0000   1.0000   1.0000   1.0000   1.0000   1.0000   1.0000
     1.0000   1.0000   1.0000   1.0000   1.0000   1.0000   1.0000   1.0000
     1.0000   1.0000   1.0000   1.0000   1.0000   1.0000   1.0000   1.0000
     1.0000   1.0000   1.0000   1.0000   1.0000   1.0000   0.0000   0.0000
     0.0000   0.0000   0.0000   0.0000   0.0000   0.0000   0.0000   0.0000

          k = 0.3750-0.0352 0.1262 (  3528 PWs)   bands (ev):

    -0.8932  -0.8911   0.4166   0.4177   2.6652   2.6692   3.1839   3.1898
     5.7391   5.7419   5.9607   5.9643   6.8419   6.8581   7.2443   7.2656
     8.1053   8.1359   8.5558   8.5728   8.7708   8.7837   9.1480   9.1602
     9.5805   9.6119   9.7278   9.7546  11.1050  11.1188  12.1053  12.1277
    13.6272  13.6553  13.8031  13.8227  14.3317  14.3795  14.6755  14.7077

     occupation numbers 
     1.0000   1.0000   1.0000   1.0000   1.0000   1.0000   1.0000   1.0000
     1.0000   1.0000   1.0000   1.0000   1.0000   1.0000   1.0000   1.0000
     1.0000   1.0000   1.0000   1.0000   1.0000   1.0000   1.0000   1.0000
     1.0000   1.0000   1.0000   1.0000   1.0000   1.0000   1.0000   1.0000
     0.0000   0.0000   0.0000   0.0000   0.0000   0.0000   0.0000   0.0000

          k = 0.3750-0.0352 0.2525 (  3527 PWs)   bands (ev):

    -0.5723  -0.5714  -0.0979  -0.0972   2.9653   2.9705   3.2687   3.2750
     5.6394   5.6619   5.7862   5.8117   7.0399   7.0675   7.3832   7.4191
     7.9182   7.9442   8.2637   8.2749   8.9711   8.9733   9.0212   9.0308
     9.7891   9.8261   9.8643   9.8990  11.1988  11.2151  11.5525  11.5784
    13.6708  13.6984  13.8935  13.9452  14.2251  14.2515  14.4066  14.4461

     occupation numbers 
     1.0000   1.0000   1.0000   1.0000   1.0000   1.0000   1.0000   1.0000
     1.0000   1.0000   1.0000   1.0000   1.0000   1.0000   1.0000   1.0000
     1.0000   1.0000   1.0000   1.0000   1.0000   1.0000   1.0000   1.0000
     1.0000   1.0000   1.0000   1.0000   1.0000   1.0000   1.0000   1.0000
     0.0000   0.0000   0.0000   0.0000   0.0000   0.0000   0.0000   0.0000

          k = 0.2500 0.0000 0.0000 (  3527 PWs)   bands (ev):

    -1.8155  -1.8140   0.4203   0.4214   2.3768   2.3842   2.9323   2.9457
     6.2325   6.2367   6.9883   7.0062   7.1230   7.1245   7.5747   7.5802
     7.8043   7.8119   8.1780   8.1855   8.3754   8.3818   9.5865   9.6156
     9.7526   9.7765  10.2563  10.3050  11.4442  11.4575  12.1221  12.1572
    13.2112  13.2267  13.5302  13.5374  13.9231  13.9521  14.6256  14.6626

     occupation numbers 
     1.0000   1.0000   1.0000   1.0000   1.0000   1.0000   1.0000   1.0000
     1.0000   1.0000   1.0000   1.0000   1.0000   1.0000   1.0000   1.0000
     1.0000   1.0000   1.0000   1.0000   1.0000   1.0000   1.0000   1.0000
     1.0000   1.0000   1.0000   1.0000   1.0000   1.0000   1.0000   1.0000
     0.0000   0.0000   0.0000   0.0000   0.0000   0.0000   0.0000   0.0000

          k = 0.2500 0.0000 0.1262 (  3523 PWs)   bands (ev):

    -1.6383  -1.6373   0.1672   0.1680   2.4711   2.4774   2.9026   2.9084
     5.8805   5.8818   6.3084   6.3116   7.1334   7.1354   7.9589   7.9876
     8.0383   8.0446   8.5915   8.6109   8.9634   8.9800   9.5583   9.5797
     9.8977   9.9294  10.0615  10.0968  11.3986  11.4041  11.7782  11.8176
    13.2981  13.2999  13.3935  13.4198  13.8710  13.8826  14.7384  14.7504

     occupation numbers 
     1.0000   1.0000   1.0000   1.0000   1.0000   1.0000   1.0000   1.0000
     1.0000   1.0000   1.0000   1.0000   1.0000   1.0000   1.0000   1.0000
     1.0000   1.0000   1.0000   1.0000   1.0000   1.0000   1.0000   1.0000
     1.0000   1.0000   1.0000   1.0000   1.0000   1.0000   1.0000   1.0000
     0.0000   0.0000   0.0000   0.0000   0.0000   0.0000   0.0000   0.0000

          k = 0.2500 0.0000 0.2525 (  3518 PWs)   bands (ev):

    -1.1440  -1.1439  -0.4594  -0.4580   2.6902   2.6940   2.8577   2.8588
     5.4462   5.4510   5.6019   5.6066   7.5380   7.5478   7.9653   7.9845
     8.5220   8.5261   8.8295   8.8342   9.2367   9.2455   9.6298   9.6356
    10.3345  10.3402  10.3826  10.3931  11.2334  11.2730  11.3610  11.4238
    13.1116  13.1206  13.5289  13.5572  13.9941  14.0095  14.5027  14.5052

     occupation numbers 
     1.0000   1.0000   1.0000   1.0000   1.0000   1.0000   1.0000   1.0000
     1.0000   1.0000   1.0000   1.0000   1.0000   1.0000   1.0000   1.0000
     1.0000   1.0000   1.0000   1.0000   1.0000   1.0000   1.0000   1.0000
     1.0000   1.0000   1.0000   1.0000   1.0000   1.0000   1.0000   1.0000
     0.0000   0.0000   0.0000   0.0000   0.0000   0.0000   0.0000   0.0000

          k = 0.0000 0.1406 0.0000 (  3534 PWs)   bands (ev):

    -2.3190  -2.3183  -0.5920  -0.5888   2.3652   2.3805   2.8588   2.8713
     5.4709   5.4806   6.2588   6.2703   6.9074   6.9158   8.0713   8.0761
     8.9259   8.9574   9.9061   9.9494   9.9997  10.0162  10.0771  10.1226
    10.4428  10.4492  10.7846  10.7865  11.5620  11.6330  11.6544  11.6552
    12.6350  12.6671  12.8682  12.8933  13.1923  13.2490  14.3950  14.4049

     occupation numbers 
     1.0000   1.0000   1.0000   1.0000   1.0000   1.0000   1.0000   1.0000
     1.0000   1.0000   1.0000   1.0000   1.0000   1.0000   1.0000   1.0000
     1.0000   1.0000   1.0000   1.0000   1.0000   1.0000   1.0000   1.0000
     1.0000   1.0000   1.0000   1.0000   1.0000   1.0000   1.0000   1.0000
     0.0000   0.0000   0.0000   0.0000   0.0000   0.0000   0.0000   0.0000

          k = 0.0000 0.1406 0.1262 (  3541 PWs)   bands (ev):

    -2.1085  -2.1081  -0.5645  -0.5626   1.8072   1.8121   2.6242   2.6372
     5.3877   5.4030   6.7112   6.7214   7.2019   7.2059   8.0779   8.0843
     9.2104   9.2361   9.5797   9.5831   9.8192   9.8205   9.9110   9.9247
    10.6769  10.6934  10.8437  10.8590  11.5258  11.5845  11.8470  11.8472
    12.9851  13.0114  13.0778  13.1004  13.6177  13.6487  14.6464  14.6468

     occupation numbers 
     1.0000   1.0000   1.0000   1.0000   1.0000   1.0000   1.0000   1.0000
     1.0000   1.0000   1.0000   1.0000   1.0000   1.0000   1.0000   1.0000
     1.0000   1.0000   1.0000   1.0000   1.0000   1.0000   1.0000   1.0000
     1.0000   1.0000   1.0000   1.0000   1.0000   1.0000   1.0000   1.0000
     0.0000   0.0000   0.0000   0.0000   0.0000   0.0000   0.0000   0.0000

          k = 0.0000 0.1406 0.2525 (  3524 PWs)   bands (ev):

    -1.5290  -1.5289  -0.8282  -0.8277   1.4321   1.4359   1.9341   1.9404
     5.5959   5.5996   6.3311   6.3356   8.0079   8.0085   8.6863   8.6917
     9.3389   9.3396   9.4292   9.4308   9.5532   9.5761   9.8500   9.8603
    10.6020  10.6500  11.2184  11.2530  11.4041  11.4056  11.8052  11.8056
    13.3037  13.3251  13.6706  13.6893  14.1686  14.1867  15.2818  15.2910

     occupation numbers 
     1.0000   1.0000   1.0000   1.0000   1.0000   1.0000   1.0000   1.0000
     1.0000   1.0000   1.0000   1.0000   1.0000   1.0000   1.0000   1.0000
     1.0000   1.0000   1.0000   1.0000   1.0000   1.0000   1.0000   1.0000
     1.0000   1.0000   1.0000   1.0000   1.0000   1.0000   1.0000   1.0000
     0.0000   0.0000   0.0000   0.0000   0.0000   0.0000   0.0000   0.0000

          k =-0.1250 0.1758 0.0000 (  3536 PWs)   bands (ev):

    -1.9797  -1.9785  -0.6785  -0.6757   2.5732   2.5860   2.9086   2.9210
     5.4993   5.5074   6.1956   6.2070   7.2289   7.2352   8.2314   8.2393
     8.5312   8.5453   9.0817   9.0953   9.6697   9.6973   9.7554   9.7959
    10.4970  10.5261  10.6472  10.7148  11.3779  11.4088  11.8094  11.8447
    12.0490  12.0927  13.6119  13.6398  13.8943  13.9515  14.4814  14.5070

     occupation numbers 
     1.0000   1.0000   1.0000   1.0000   1.0000   1.0000   1.0000   1.0000
     1.0000   1.0000   1.0000   1.0000   1.0000   1.0000   1.0000   1.0000
     1.0000   1.0000   1.0000   1.0000   1.0000   1.0000   1.0000   1.0000
     1.0000   1.0000   1.0000   1.0000   1.0000   1.0000   1.0000   1.0000
     1.0000   1.0000   0.0000   0.0000   0.0000   0.0000   0.0000   0.0000

          k =-0.1250 0.1758 0.1262 (  3537 PWs)   bands (ev):

    -1.7852  -1.7845  -0.6148  -0.6132   1.9582   1.9648   2.6396   2.6523
     5.5658   5.5794   6.7555   6.7634   7.6525   7.6590   8.0056   8.0225
     8.6606   8.6723   8.9874   8.9982   9.5383   9.5596   9.9872  10.0315
    10.3396  10.3951  10.6128  10.6621  11.2316  11.2642  11.6436  11.6867
    12.4328  12.4606  13.6654  13.6921  14.3460  14.3769  14.5957  14.6387

     occupation numbers 
     1.0000   1.0000   1.0000   1.0000   1.0000   1.0000   1.0000   1.0000
     1.0000   1.0000   1.0000   1.0000   1.0000   1.0000   1.0000   1.0000
     1.0000   1.0000   1.0000   1.0000   1.0000   1.0000   1.0000   1.0000
     1.0000   1.0000   1.0000   1.0000   1.0000   1.0000   1.0000   1.0000
     0.0000   0.0000   0.0000   0.0000   0.0000   0.0000   0.0000   0.0000

          k =-0.1250 0.1758 0.2525 (  3511 PWs)   bands (ev):

    -1.2643  -1.2637  -0.7115  -0.7102   1.4618   1.4687   1.8839   1.8924
     6.0181   6.0264   6.8273   6.8367   7.8212   7.8307   8.4701   8.4994
     8.8683   8.8938   8.9885   9.0182   9.6112   9.6332   9.7886   9.8072
    10.3203  10.3644  10.6560  10.6889  11.0732  11.1023  11.3351  11.3697
    13.4575  13.4948  13.9113  13.9328  14.4084  14.4312  14.7634  14.7844

     occupation numbers 
     1.0000   1.0000   1.0000   1.0000   1.0000   1.0000   1.0000   1.0000
     1.0000   1.0000   1.0000   1.0000   1.0000   1.0000   1.0000   1.0000
     1.0000   1.0000   1.0000   1.0000   1.0000   1.0000   1.0000   1.0000
     1.0000   1.0000   1.0000   1.0000   1.0000   1.0000   1.0000   1.0000
     0.0000   0.0000   0.0000   0.0000   0.0000   0.0000   0.0000   0.0000

          k = 0.7500-0.0703 0.0000 (  3529 PWs)   bands (ev):

    -1.2907  -1.2890  -0.4873  -0.4853   2.8862   2.8890   3.0206   3.0314
     5.6202   5.6292   6.3766   6.3784   6.9674   6.9696   7.6386   7.6443
     7.9687   7.9882   8.7907   8.8172   8.8989   8.9152   9.3388   9.3624
    10.2461  10.2719  10.6594  10.7455  10.8854  10.9406  11.5929  11.6103
    12.7281  12.7547  13.7895  13.8098  14.4206  14.4844  14.8007  14.8564

     occupation numbers 
     1.0000   1.0000   1.0000   1.0000   1.0000   1.0000   1.0000   1.0000
     1.0000   1.0000   1.0000   1.0000   1.0000   1.0000   1.0000   1.0000
     1.0000   1.0000   1.0000   1.0000   1.0000   1.0000   1.0000   1.0000
     1.0000   1.0000   1.0000   1.0000   1.0000   1.0000   1.0000   1.0000
     0.0000   0.0000   0.0000   0.0000   0.0000   0.0000   0.0000   0.0000

          k = 0.7500-0.0703 0.1262 (  3528 PWs)   bands (ev):

    -1.1435  -1.1424  -0.4365  -0.4354   2.3803   2.3884   2.8000   2.8097
     5.8609   5.8652   6.6623   6.6675   7.1681   7.1764   8.0038   8.0189
     8.1512   8.1577   8.5031   8.5211   8.9376   8.9671   9.3980   9.4360
    10.0132  10.0286  10.2736  10.3000  10.8290  10.8539  11.6298  11.6541
    12.6561  12.6779  14.0036  14.0219  14.5898  14.6364  15.0426  15.0738

     occupation numbers 
     1.0000   1.0000   1.0000   1.0000   1.0000   1.0000   1.0000   1.0000
     1.0000   1.0000   1.0000   1.0000   1.0000   1.0000   1.0000   1.0000
     1.0000   1.0000   1.0000   1.0000   1.0000   1.0000   1.0000   1.0000
     1.0000   1.0000   1.0000   1.0000   1.0000   1.0000   1.0000   1.0000
     0.0000   0.0000   0.0000   0.0000   0.0000   0.0000   0.0000   0.0000

          k = 0.7500-0.0703 0.2525 (  3525 PWs)   bands (ev):

    -0.7751  -0.7739  -0.4552  -0.4531   1.9418   1.9516   2.1878   2.1976
     6.4929   6.4980   7.1713   7.1860   7.2548   7.2646   7.6197   7.6315
     8.3543   8.3662   8.8641   8.8849   9.0920   9.1029   9.3124   9.3315
     9.8360   9.8552   9.9561   9.9714  10.8217  10.8548  11.2057  11.2414
    13.3145  13.3400  13.9729  14.0095  14.6122  14.6455  14.7732  14.8131

     occupation numbers 
     1.0000   1.0000   1.0000   1.0000   1.0000   1.0000   1.0000   1.0000
     1.0000   1.0000   1.0000   1.0000   1.0000   1.0000   1.0000   1.0000
     1.0000   1.0000   1.0000   1.0000   1.0000   1.0000   1.0000   1.0000
     1.0000   1.0000   1.0000   1.0000   1.0000   1.0000   1.0000   1.0000
     0.0000   0.0000   0.0000   0.0000   0.0000   0.0000   0.0000   0.0000

          k = 0.6250-0.0352 0.0000 (  3528 PWs)   bands (ev):

    -0.5030  -0.5023  -0.0863  -0.0852   2.9142   2.9184   3.1221   3.1281
     5.5231   5.5260   5.9720   5.9823   6.7163   6.7235   6.8287   6.8366
     7.8217   7.8339   8.7745   8.7805   8.8934   8.9085   9.3451   9.3509
     9.8664   9.8908  10.3770  10.4507  10.5299  10.5819  12.1349  12.1517
    13.4655  13.4826  13.6552  13.6814  14.6802  14.7216  14.8191  14.8664

     occupation numbers 
     1.0000   1.0000   1.0000   1.0000   1.0000   1.0000   1.0000   1.0000
     1.0000   1.0000   1.0000   1.0000   1.0000   1.0000   1.0000   1.0000
     1.0000   1.0000   1.0000   1.0000   1.0000   1.0000   1.0000   1.0000
     1.0000   1.0000   1.0000   1.0000   1.0000   1.0000   1.0000   1.0000
     0.0000   0.0000   0.0000   0.0000   0.0000   0.0000   0.0000   0.0000

          k = 0.6250-0.0352 0.1262 (  3526 PWs)   bands (ev):

    -0.4452  -0.4445  -0.0941  -0.0938   2.8197   2.8297   2.9634   2.9707
     5.6870   5.6973   6.2268   6.2394   6.7094   6.7192   7.0182   7.0244
     7.9807   7.9908   8.3220   8.3410   9.1719   9.1941   9.2584   9.2748
     9.6711   9.6755  10.1058  10.1196  10.7236  10.7399  11.8491  11.8625
    13.4818  13.5061  13.7400  13.7676  14.7036  14.7419  15.0642  15.0835

     occupation numbers 
     1.0000   1.0000   1.0000   1.0000   1.0000   1.0000   1.0000   1.0000
     1.0000   1.0000   1.0000   1.0000   1.0000   1.0000   1.0000   1.0000
     1.0000   1.0000   1.0000   1.0000   1.0000   1.0000   1.0000   1.0000
     1.0000   1.0000   1.0000   1.0000   1.0000   1.0000   1.0000   1.0000
     0.0000   0.0000   0.0000   0.0000   0.0000   0.0000   0.0000   0.0000

          k = 0.6250-0.0352 0.2525 (  3515 PWs)   bands (ev):

    -0.3033  -0.3012  -0.1598  -0.1576   2.6736   2.6852   2.7717   2.7829
     5.9234   5.9425   6.4627   6.4778   6.8041   6.8094   7.4581   7.4651
     7.9856   8.0011   8.5475   8.5640   8.9176   8.9263   9.1701   9.1930
     9.3723   9.3871   9.5458   9.5603  10.9167  10.9388  11.3624  11.3866
    13.8079  13.8206  14.0481  14.0758  14.2118  14.2435  14.7853  14.8422

     occupation numbers 
     1.0000   1.0000   1.0000   1.0000   1.0000   1.0000   1.0000   1.0000
     1.0000   1.0000   1.0000   1.0000   1.0000   1.0000   1.0000   1.0000
     1.0000   1.0000   1.0000   1.0000   1.0000   1.0000   1.0000   1.0000
     1.0000   1.0000   1.0000   1.0000   1.0000   1.0000   1.0000   1.0000
     0.0000   0.0000   0.0000   0.0000   0.0000   0.0000   0.0000   0.0000

          k = 0.5000 0.0000 0.0000 (  3523 PWs)   bands (ev):

    -0.3802  -0.3773   0.5075   0.5091   2.6790   2.6809   3.0757   3.0764
     5.2925   5.2953   5.7254   5.7361   6.8010   6.8067   6.8669   6.8770
     8.2948   8.3058   8.4793   8.4949   9.0326   9.0401   9.0742   9.0797
     9.4934   9.4967  10.0209  10.0396  10.7068  10.7549  12.4568  12.4624
    14.0374  14.0631  14.1107  14.1534  14.3916  14.4383  14.5522  14.5906

     occupation numbers 
     1.0000   1.0000   1.0000   1.0000   1.0000   1.0000   1.0000   1.0000
     1.0000   1.0000   1.0000   1.0000   1.0000   1.0000   1.0000   1.0000
     1.0000   1.0000   1.0000   1.0000   1.0000   1.0000   1.0000   1.0000
     1.0000   1.0000   1.0000   1.0000   1.0000   1.0000   0.0000   0.0000
     0.0000   0.0000   0.0000   0.0000   0.0000   0.0000   0.0000   0.0000

          k = 0.5000 0.0000 0.1262 (  3529 PWs)   bands (ev):

    -0.3448  -0.3419   0.3494   0.3500   2.8205   2.8270   3.1555   3.1596
     5.4136   5.4314   6.0080   6.0139   6.7134   6.7308   6.8263   6.8343
     7.7699   7.7733   8.2880   8.2932   9.1438   9.1637   9.2745   9.2787
     9.6126   9.6169   9.9002   9.9129  10.7629  10.7843  12.1517  12.1576
    13.9660  13.9849  13.9988  14.0148  14.6707  14.6729  14.7680  14.7765

     occupation numbers 
     1.0000   1.0000   1.0000   1.0000   1.0000   1.0000   1.0000   1.0000
     1.0000   1.0000   1.0000   1.0000   1.0000   1.0000   1.0000   1.0000
     1.0000   1.0000   1.0000   1.0000   1.0000   1.0000   1.0000   1.0000
     1.0000   1.0000   1.0000   1.0000   1.0000   1.0000   1.0000   1.0000
     0.0000   0.0000   0.0000   0.0000   0.0000   0.0000   0.0000   0.0000

          k = 0.5000 0.0000 0.2525 (  3524 PWs)   bands (ev):

    -0.2145  -0.2121   0.0380   0.0391   3.1256   3.1403   3.2650   3.2776
     5.5743   5.6129   5.8611   5.8868   6.7842   6.8050   7.0291   7.0355
     7.7992   7.8053   8.4375   8.4457   8.7619   8.7721   8.9578   8.9596
     9.4288   9.4374   9.6810   9.6869  11.0087  11.0210  11.5541  11.5619
    13.9872  14.0230  14.3306  14.3560  14.4567  14.4791  14.6166  14.6512

     occupation numbers 
     1.0000   1.0000   1.0000   1.0000   1.0000   1.0000   1.0000   1.0000
     1.0000   1.0000   1.0000   1.0000   1.0000   1.0000   1.0000   1.0000
     1.0000   1.0000   1.0000   1.0000   1.0000   1.0000   1.0000   1.0000
     1.0000   1.0000   1.0000   1.0000   1.0000   1.0000   1.0000   1.0000
     0.0000   0.0000   0.0000   0.0000   0.0000   0.0000   0.0000   0.0000

          k = 0.0000 0.2109 0.0000 (  3542 PWs)   bands (ev):

    -1.9958  -1.9946  -1.0796  -1.0770   2.5748   2.5894   2.8432   2.8559
     5.3626   5.3720   5.8013   5.8122   7.2313   7.2382   8.5376   8.5492
     8.9840   9.0049   9.7165   9.7358   9.9361   9.9836  10.0224  10.0707
    10.7683  10.7827  10.8048  10.8168  11.6537  11.6607  11.6921  11.7172
    12.0747  12.1232  13.0154  13.0697  13.2720  13.2749  14.5116  14.5166

     occupation numbers 
     1.0000   1.0000   1.0000   1.0000   1.0000   1.0000   1.0000   1.0000
     1.0000   1.0000   1.0000   1.0000   1.0000   1.0000   1.0000   1.0000
     1.0000   1.0000   1.0000   1.0000   1.0000   1.0000   1.0000   1.0000
     1.0000   1.0000   1.0000   1.0000   1.0000   1.0000   1.0000   1.0000
     1.0000   1.0000   0.0000   0.0000   0.0000   0.0000   0.0000   0.0000

          k = 0.0000 0.2109 0.1262 (  3535 PWs)   bands (ev):

    -1.7973  -1.7965  -0.9561  -0.9545   1.8688   1.8750   2.4009   2.4120
     5.6178   5.6294   6.4679   6.4754   7.7400   7.7570   8.1847   8.2141
     9.1259   9.1320   9.6812   9.6843   9.7523   9.7589   9.8763   9.8765
    10.4814  10.4953  10.8834  10.8983  11.5144  11.5500  11.6256  11.6300
    12.8863  12.9001  13.2273  13.2632  13.6459  13.6472  14.6994  14.8765

     occupation numbers 
     1.0000   1.0000   1.0000   1.0000   1.0000   1.0000   1.0000   1.0000
     1.0000   1.0000   1.0000   1.0000   1.0000   1.0000   1.0000   1.0000
     1.0000   1.0000   1.0000   1.0000   1.0000   1.0000   1.0000   1.0000
     1.0000   1.0000   1.0000   1.0000   1.0000   1.0000   1.0000   1.0000
     0.0000   0.0000   0.0000   0.0000   0.0000   0.0000   0.0000   0.0000

          k = 0.0000 0.2109 0.2525 (  3513 PWs)   bands (ev):

    -1.2784  -1.2782  -0.8420  -0.8417   1.1483   1.1521   1.5044   1.5096
     6.1983   6.1998   7.0511   7.0538   7.7881   7.7886   8.5362   8.5440
     9.3117   9.3121   9.4580   9.4611   9.5344   9.5371   9.6882   9.7016
    10.4976  10.5282  11.0666  11.0839  11.2013  11.2015  11.5223  11.5233
    13.4595  13.4835  13.7351  13.7365  14.2288  14.2410  15.1986  15.2036

     occupation numbers 
     1.0000   1.0000   1.0000   1.0000   1.0000   1.0000   1.0000   1.0000
     1.0000   1.0000   1.0000   1.0000   1.0000   1.0000   1.0000   1.0000
     1.0000   1.0000   1.0000   1.0000   1.0000   1.0000   1.0000   1.0000
     1.0000   1.0000   1.0000   1.0000   1.0000   1.0000   1.0000   1.0000
     0.0000   0.0000   0.0000   0.0000   0.0000   0.0000   0.0000   0.0000

          k = 0.8750-0.0352 0.0000 (  3540 PWs)   bands (ev):

    -1.6146  -1.6130  -1.1593  -1.1572   2.7655   2.7769   2.8847   2.8949
     5.4893   5.4980   5.7235   5.7332   7.5774   7.5822   8.4236   8.4286
     8.5616   8.5763   8.9103   8.9313   9.8164   9.8676  10.0389  10.0615
    10.5870  10.6476  10.6635  10.7007  11.1878  11.2325  11.3042  11.3416
    12.0617  12.1415  13.9122  13.9564  14.0040  14.0250  14.3246  14.3485

     occupation numbers 
     1.0000   1.0000   1.0000   1.0000   1.0000   1.0000   1.0000   1.0000
     1.0000   1.0000   1.0000   1.0000   1.0000   1.0000   1.0000   1.0000
     1.0000   1.0000   1.0000   1.0000   1.0000   1.0000   1.0000   1.0000
     1.0000   1.0000   1.0000   1.0000   1.0000   1.0000   1.0000   1.0000
     1.0000   1.0000   0.0000   0.0000   0.0000   0.0000   0.0000   0.0000

          k = 0.8750-0.0352 0.1262 (  3531 PWs)   bands (ev):

    -1.4384  -1.4374  -1.0231  -1.0217   2.1097   2.1174   2.3772   2.3871
     5.8600   5.8710   6.4009   6.4082   8.0092   8.0205   8.3162   8.3351
     8.6541   8.6677   9.0407   9.0559   9.3060   9.3302   9.7250   9.7482
    10.4294  10.4361  10.7440  10.7680  11.1045  11.1413  11.4860  11.4903
    12.3150  12.3506  14.0777  14.0927  14.3569  14.3785  14.5205  14.5361

     occupation numbers 
     1.0000   1.0000   1.0000   1.0000   1.0000   1.0000   1.0000   1.0000
     1.0000   1.0000   1.0000   1.0000   1.0000   1.0000   1.0000   1.0000
     1.0000   1.0000   1.0000   1.0000   1.0000   1.0000   1.0000   1.0000
     1.0000   1.0000   1.0000   1.0000   1.0000   1.0000   1.0000   1.0000
     0.9917   0.0949   0.0000   0.0000   0.0000   0.0000   0.0000   0.0000

          k = 0.8750-0.0352 0.2525 (  3525 PWs)   bands (ev):

    -1.0122  -1.0114  -0.7963  -0.7952   1.3377   1.3438   1.5175   1.5241
     6.5966   6.6016   7.3270   7.3354   7.7418   7.7426   8.3918   8.4064
     8.8186   8.8247   9.0482   9.0614   9.3088   9.3256   9.4365   9.4709
    10.3113  10.3191  10.6096  10.6323  11.0315  11.0618  11.1429  11.1737
    13.5423  13.5593  14.2018  14.2146  14.6247  14.6428  14.7708  14.7837

     occupation numbers 
     1.0000   1.0000   1.0000   1.0000   1.0000   1.0000   1.0000   1.0000
     1.0000   1.0000   1.0000   1.0000   1.0000   1.0000   1.0000   1.0000
     1.0000   1.0000   1.0000   1.0000   1.0000   1.0000   1.0000   1.0000
     1.0000   1.0000   1.0000   1.0000   1.0000   1.0000   1.0000   1.0000
     0.0000   0.0000   0.0000   0.0000   0.0000   0.0000   0.0000   0.0000

          k = 0.7500 0.0000 0.0000 (  3524 PWs)   bands (ev):

    -0.9650  -0.9638  -0.8649  -0.8636   2.9792   2.9795   3.0255   3.0354
     5.6256   5.6443   6.1349   6.1444   6.8962   6.8973   7.8669   7.8778
     7.9393   7.9522   8.6157   8.6515   9.1455   9.1781   9.4040   9.4115
    10.2844  10.3253  10.7297  10.7620  10.8759  10.8770  11.4087  11.4311
    12.7731  12.8109  13.6445  13.6755  14.6448  14.6933  14.7240  14.7507

     occupation numbers 
     1.0000   1.0000   1.0000   1.0000   1.0000   1.0000   1.0000   1.0000
     1.0000   1.0000   1.0000   1.0000   1.0000   1.0000   1.0000   1.0000
     1.0000   1.0000   1.0000   1.0000   1.0000   1.0000   1.0000   1.0000
     1.0000   1.0000   1.0000   1.0000   1.0000   1.0000   1.0000   1.0000
     0.0000   0.0000   0.0000   0.0000   0.0000   0.0000   0.0000   0.0000

          k = 0.7500 0.0000 0.1262 (  3526 PWs)   bands (ev):

    -0.8448  -0.8445  -0.7594  -0.7590   2.5660   2.5706   2.5770   2.5783
     6.1540   6.1663   6.3612   6.3724   7.0803   7.0808   8.1601   8.1678
     8.3436   8.3575   8.5655   8.5914   8.8743   8.8870   9.1438   9.1513
    10.0735  10.0878  10.4144  10.4281  10.6775  10.6883  11.6069  11.6233
    12.6872  12.7140  13.9102  13.9216  14.8133  14.8500  15.1708  15.1880

     occupation numbers 
     1.0000   1.0000   1.0000   1.0000   1.0000   1.0000   1.0000   1.0000
     1.0000   1.0000   1.0000   1.0000   1.0000   1.0000   1.0000   1.0000
     1.0000   1.0000   1.0000   1.0000   1.0000   1.0000   1.0000   1.0000
     1.0000   1.0000   1.0000   1.0000   1.0000   1.0000   1.0000   1.0000
     0.0000   0.0000   0.0000   0.0000   0.0000   0.0000   0.0000   0.0000

          k = 0.7500 0.0000 0.2525 (  3522 PWs)   bands (ev):

    -0.6005  -0.5989  -0.5620  -0.5605   1.9548   1.9577   1.9728   1.9774
     6.8695   6.8825   7.0362   7.0368   7.5547   7.5567   7.8030   7.8047
     8.3125   8.3205   8.3417   8.3531   9.0206   9.0327   9.2381   9.2553
     9.8471   9.8592   9.9588   9.9617  10.8304  10.8606  11.1838  11.2129
    13.4225  13.4265  14.0511  14.0577  14.6155  14.6380  14.8047  14.8349

     occupation numbers 
     1.0000   1.0000   1.0000   1.0000   1.0000   1.0000   1.0000   1.0000
     1.0000   1.0000   1.0000   1.0000   1.0000   1.0000   1.0000   1.0000
     1.0000   1.0000   1.0000   1.0000   1.0000   1.0000   1.0000   1.0000
     1.0000   1.0000   1.0000   1.0000   1.0000   1.0000   1.0000   1.0000
     0.0000   0.0000   0.0000   0.0000   0.0000   0.0000   0.0000   0.0000

          k = 0.0000-0.2812 0.0000 (  3538 PWs)   bands (ev):

    -1.6093  -1.6093  -1.5275  -1.5275   2.7204   2.7204   2.7987   2.7987
     5.3617   5.3617   5.5672   5.5672   7.4110   7.4110   8.9210   8.9210
     8.9344   8.9344   9.4769   9.4769   9.9660   9.9660  10.0275  10.0275
    10.7933  10.7933  11.2213  11.2213  11.2824  11.2824  11.6767  11.6767
    12.0067  12.0067  13.0148  13.0148  13.4759  13.4759  14.5515  14.5515

     occupation numbers 
     1.0000   1.0000   1.0000   1.0000   1.0000   1.0000   1.0000   1.0000
     1.0000   1.0000   1.0000   1.0000   1.0000   1.0000   1.0000   1.0000
     1.0000   1.0000   1.0000   1.0000   1.0000   1.0000   1.0000   1.0000
     1.0000   1.0000   1.0000   1.0000   1.0000   1.0000   1.0000   1.0000
     1.0000   1.0000   0.0000   0.0000   0.0000   0.0000   0.0000   0.0000

          k = 0.0000-0.2812 0.1262 (  3536 PWs)   bands (ev):

    -1.4249  -1.4249  -1.3656  -1.3656   2.0781   2.0781   2.1345   2.1345
     5.8645   5.8645   6.2088   6.2088   7.9115   7.9115   8.5325   8.5325
     8.9290   8.9290   9.6905   9.6906   9.7537   9.7537   9.8623   9.8623
    10.3706  10.3706  11.0173  11.0173  11.3834  11.3834  11.5005  11.5005
    12.8779  12.8779  13.4740  13.4740  13.5388  13.5388  14.7309  14.7841

     occupation numbers 
     1.0000   1.0000   1.0000   1.0000   1.0000   1.0000   1.0000   1.0000
     1.0000   1.0000   1.0000   1.0000   1.0000   1.0000   1.0000   1.0000
     1.0000   1.0000   1.0000   1.0000   1.0000   1.0000   1.0000   1.0000
     1.0000   1.0000   1.0000   1.0000   1.0000   1.0000   1.0000   1.0000
     0.0000   0.0000   0.0000   0.0000   0.0000   0.0000   0.0000   0.0000

          k = 0.0000-0.2812 0.2525 (  3522 PWs)   bands (ev):

    -1.0179  -1.0179  -1.0047  -1.0046   1.1641   1.1641   1.2203   1.2203
     6.5470   6.5470   7.2693   7.2693   7.8371   7.8371   8.3426   8.3426
     9.1607   9.1607   9.5242   9.5242   9.5653   9.5653   9.6155   9.6155
    10.4933  10.4933  11.0108  11.0108  11.1291  11.1291  11.3852  11.3852
    13.6418  13.6419  13.6746  13.6746  14.2768  14.2768  15.1587  15.1588

     occupation numbers 
     1.0000   1.0000   1.0000   1.0000   1.0000   1.0000   1.0000   1.0000
     1.0000   1.0000   1.0000   1.0000   1.0000   1.0000   1.0000   1.0000
     1.0000   1.0000   1.0000   1.0000   1.0000   1.0000   1.0000   1.0000
     1.0000   1.0000   1.0000   1.0000   1.0000   1.0000   1.0000   1.0000
     0.0000   0.0000   0.0000   0.0000   0.0000   0.0000   0.0000   0.0000

          k =-0.1250-0.0352 0.1262 (  3536 PWs)   bands (ev):

    -2.1614  -2.1610  -0.1400  -0.1393   2.2091   2.2167   2.6349   2.6450
     5.6276   5.6402   6.3723   6.3837   6.8719   6.8747   8.4411   8.4616
     8.7328   8.7442   9.1472   9.1763   9.4092   9.4165   9.9962  10.0170
    10.3564  10.3909  10.6110  10.6534  11.3272  11.3557  11.6678  11.7213
    13.2054  13.2292  13.3687  13.3821  14.1271  14.1474  14.2935  14.3405

     occupation numbers 
     1.0000   1.0000   1.0000   1.0000   1.0000   1.0000   1.0000   1.0000
[...]
     1.0000   1.0000   1.0000   1.0000   1.0000   1.0000   1.0000   1.0000
     0.0000   0.0000   0.0000   0.0000   0.0000   0.0000   0.0000   0.0000

          k =-0.2500-0.1406 0.1262 (  3527 PWs)   bands (ev):

    -1.4103  -1.4092  -0.1157  -0.1146   2.3104   2.3194   2.9642   2.9762
     5.6361   5.6431   6.8781   6.8859   7.2881   7.2935   7.6704   7.6846
     7.9474   7.9603   8.5274   8.5528   9.2662   9.2970   9.4166   9.4443
     9.8493   9.8651  10.1648  10.2248  11.1110  11.1329  11.7120  11.7564
    12.6703  12.6925  13.8575  13.8961  14.5096  14.5217  14.7828  14.8166

     occupation numbers 
     1.0000   1.0000   1.0000   1.0000   1.0000   1.0000   1.0000   1.0000
     1.0000   1.0000   1.0000   1.0000   1.0000   1.0000   1.0000   1.0000
     1.0000   1.0000   1.0000   1.0000   1.0000   1.0000   1.0000   1.0000
     1.0000   1.0000   1.0000   1.0000   1.0000   1.0000   1.0000   1.0000
     0.0000   0.0000   0.0000   0.0000   0.0000   0.0000   0.0000   0.0000

          k =-0.2500-0.1406 0.2525 (  3523 PWs)   bands (ev):

    -0.9645  -0.9639  -0.4258  -0.4239   2.1480   2.1592   2.5167   2.5287
     5.9262   5.9363   6.5742   6.5854   7.3340   7.3497   7.6304   7.6474
     8.6247   8.6490   8.9729   8.9924   9.2822   9.3113   9.4707   9.5072
     9.9470   9.9737  10.0445  10.0778  10.9083  10.9451  11.2782  11.3192
    13.1376  13.1707  13.7500  13.7877  14.4630  14.4902  14.6973  14.7128

     occupation numbers 
     1.0000   1.0000   1.0000   1.0000   1.0000   1.0000   1.0000   1.0000
     1.0000   1.0000   1.0000   1.0000   1.0000   1.0000   1.0000   1.0000
     1.0000   1.0000   1.0000   1.0000   1.0000   1.0000   1.0000   1.0000
     1.0000   1.0000   1.0000   1.0000   1.0000   1.0000   1.0000   1.0000
     0.0000   0.0000   0.0000   0.0000   0.0000   0.0000   0.0000   0.0000

          k = 0.6250 0.1055 0.1262 (  3526 PWs)   bands (ev):

    -0.6441  -0.6430   0.1226   0.1239   2.7199   2.7310   3.1008   3.1071
     5.6819   5.6880   5.9361   5.9494   6.8884   6.9030   7.3604   7.3698
     7.7263   7.7464   8.5922   8.6216   9.0480   9.0670   9.2950   9.3287
     9.5121   9.5690   9.7480   9.7942  10.9645  10.9873  11.9120  11.9380
    13.3837  13.4147  14.0133  14.0478  14.4336  14.4824  14.8784  14.9090

     occupation numbers 
     1.0000   1.0000   1.0000   1.0000   1.0000   1.0000   1.0000   1.0000
     1.0000   1.0000   1.0000   1.0000   1.0000   1.0000   1.0000   1.0000
     1.0000   1.0000   1.0000   1.0000   1.0000   1.0000   1.0000   1.0000
     1.0000   1.0000   1.0000   1.0000   1.0000   1.0000   1.0000   1.0000
     0.0000   0.0000   0.0000   0.0000   0.0000   0.0000   0.0000   0.0000

          k = 0.6250 0.1055 0.2525 (  3526 PWs)   bands (ev):

    -0.4113  -0.4104  -0.1139  -0.1118   2.7197   2.7308   2.9427   2.9509
     5.9393   5.9486   6.3303   6.3449   6.6190   6.6361   7.2089   7.2251
     8.2811   8.3031   8.7236   8.7417   8.9691   8.9740   9.1101   9.1428
     9.3304   9.3508   9.5341   9.5507  11.0268  11.0569  11.4071  11.4347
    13.6110  13.6210  13.9920  14.0196  14.2906  14.3142  14.5033  14.5204

     occupation numbers 
     1.0000   1.0000   1.0000   1.0000   1.0000   1.0000   1.0000   1.0000
     1.0000   1.0000   1.0000   1.0000   1.0000   1.0000   1.0000   1.0000
     1.0000   1.0000   1.0000   1.0000   1.0000   1.0000   1.0000   1.0000
     1.0000   1.0000   1.0000   1.0000   1.0000   1.0000   1.0000   1.0000
     0.0000   0.0000   0.0000   0.0000   0.0000   0.0000   0.0000   0.0000

          k = 0.5000 0.0703 0.1262 (  3525 PWs)   bands (ev):

    -0.3422  -0.3401   0.3435   0.3441   2.8542   2.8636   3.1367   3.1408
     5.3601   5.3734   5.9487   5.9686   6.6576   6.6626   7.0464   7.0624
     7.7109   7.7258   8.4423   8.4557   9.0468   9.0715   9.2276   9.2409
     9.5558   9.5729   9.7983   9.8241  10.8658  10.8809  12.1817  12.1888
    13.8296  13.8585  14.1272  14.1632  14.4515  14.5113  14.7850  14.8184

     occupation numbers 
     1.0000   1.0000   1.0000   1.0000   1.0000   1.0000   1.0000   1.0000
     1.0000   1.0000   1.0000   1.0000   1.0000   1.0000   1.0000   1.0000
     1.0000   1.0000   1.0000   1.0000   1.0000   1.0000   1.0000   1.0000
     1.0000   1.0000   1.0000   1.0000   1.0000   1.0000   1.0000   1.0000
     0.0000   0.0000   0.0000   0.0000   0.0000   0.0000   0.0000   0.0000

          k = 0.5000 0.0703 0.2525 (  3526 PWs)   bands (ev):

    -0.2132  -0.2115   0.0367   0.0376   3.1375   3.1526   3.2525   3.2635
     5.6374   5.6747   5.8981   5.9153   6.5537   6.5695   6.9931   7.0061
     7.9784   7.9954   8.5426   8.5466   8.7500   8.7758   9.0080   9.0331
     9.3525   9.3823   9.5285   9.5501  11.0944  11.1091  11.5769  11.5845
    13.8123  13.8364  14.2010  14.2182  14.4478  14.4912  14.5158  14.5386

     occupation numbers 
     1.0000   1.0000   1.0000   1.0000   1.0000   1.0000   1.0000   1.0000
     1.0000   1.0000   1.0000   1.0000   1.0000   1.0000   1.0000   1.0000
     1.0000   1.0000   1.0000   1.0000   1.0000   1.0000   1.0000   1.0000
     1.0000   1.0000   1.0000   1.0000   1.0000   1.0000   1.0000   1.0000
     0.0000   0.0000   0.0000   0.0000   0.0000   0.0000   0.0000   0.0000

          k = 0.3750 0.0352 0.1262 (  3528 PWs)   bands (ev):

    -0.8932  -0.8911   0.4166   0.4177   2.6653   2.6692   3.1839   3.1898
     5.7391   5.7419   5.9608   5.9643   6.8418   6.8580   7.2443   7.2656
     8.1053   8.1360   8.5557   8.5728   8.7708   8.7837   9.1480   9.1602
     9.5805   9.6119   9.7278   9.7546  11.1050  11.1188  12.1053  12.1277
    13.6272  13.6553  13.8031  13.8227  14.3317  14.3795  14.6755  14.7077

     occupation numbers 
     1.0000   1.0000   1.0000   1.0000   1.0000   1.0000   1.0000   1.0000
     1.0000   1.0000   1.0000   1.0000   1.0000   1.0000   1.0000   1.0000
     1.0000   1.0000   1.0000   1.0000   1.0000   1.0000   1.0000   1.0000
     1.0000   1.0000   1.0000   1.0000   1.0000   1.0000   1.0000   1.0000
     0.0000   0.0000   0.0000   0.0000   0.0000   0.0000   0.0000   0.0000

          k = 0.3750 0.0352 0.2525 (  3527 PWs)   bands (ev):

    -0.5723  -0.5714  -0.0979  -0.0972   2.9654   2.9705   3.2687   3.2749
     5.6394   5.6619   5.7862   5.8117   7.0399   7.0674   7.3833   7.4191
     7.9182   7.9442   8.2637   8.2749   8.9711   8.9733   9.0212   9.0308
     9.7891   9.8260   9.8643   9.8990  11.1988  11.2151  11.5525  11.5784
    13.6708  13.6984  13.8935  13.9452  14.2251  14.2515  14.4066  14.4461

     occupation numbers 
     1.0000   1.0000   1.0000   1.0000   1.0000   1.0000   1.0000   1.0000
     1.0000   1.0000   1.0000   1.0000   1.0000   1.0000   1.0000   1.0000
     1.0000   1.0000   1.0000   1.0000   1.0000   1.0000   1.0000   1.0000
     1.0000   1.0000   1.0000   1.0000   1.0000   1.0000   1.0000   1.0000
     0.0000   0.0000   0.0000   0.0000   0.0000   0.0000   0.0000   0.0000

          k = 0.0000-0.1406 0.1262 (  3541 PWs)   bands (ev):

    -2.1085  -2.1081  -0.5645  -0.5626   1.8072   1.8121   2.6242   2.6372
     5.3877   5.4030   6.7111   6.7213   7.2019   7.2059   8.0780   8.0843
     9.2104   9.2361   9.5797   9.5831   9.8192   9.8205   9.9110   9.9247
    10.6769  10.6934  10.8437  10.8589  11.5258  11.5845  11.8470  11.8472
    12.9851  13.0114  13.0778  13.1004  13.6177  13.6487  14.6464  14.6468

     occupation numbers 
     1.0000   1.0000   1.0000   1.0000   1.0000   1.0000   1.0000   1.0000
     1.0000   1.0000   1.0000   1.0000   1.0000   1.0000   1.0000   1.0000
     1.0000   1.0000   1.0000   1.0000   1.0000   1.0000   1.0000   1.0000
     1.0000   1.0000   1.0000   1.0000   1.0000   1.0000   1.0000   1.0000
     0.0000   0.0000   0.0000   0.0000   0.0000   0.0000   0.0000   0.0000

          k = 0.0000-0.1406 0.2525 (  3524 PWs)   bands (ev):

    -1.5290  -1.5289  -0.8282  -0.8277   1.4321   1.4359   1.9341   1.9405
     5.5959   5.5996   6.3311   6.3356   8.0079   8.0085   8.6862   8.6917
     9.3389   9.3396   9.4292   9.4308   9.5532   9.5761   9.8500   9.8603
    10.6021  10.6502  11.2183  11.2530  11.4041  11.4056  11.8052  11.8056
    13.3037  13.3251  13.6706  13.6893  14.1687  14.1867  15.2817  15.2908

     occupation numbers 
     1.0000   1.0000   1.0000   1.0000   1.0000   1.0000   1.0000   1.0000
     1.0000   1.0000   1.0000   1.0000   1.0000   1.0000   1.0000   1.0000
     1.0000   1.0000   1.0000   1.0000   1.0000   1.0000   1.0000   1.0000
     1.0000   1.0000   1.0000   1.0000   1.0000   1.0000   1.0000   1.0000
     0.0000   0.0000   0.0000   0.0000   0.0000   0.0000   0.0000   0.0000

          k =-0.1250-0.1758 0.1262 (  3537 PWs)   bands (ev):

    -1.7852  -1.7845  -0.6148  -0.6132   1.9582   1.9647   2.6396   2.6524
     5.5658   5.5794   6.7555   6.7634   7.6525   7.6590   8.0056   8.0225
     8.6606   8.6723   8.9874   8.9982   9.5383   9.5597   9.9871  10.0315
    10.3396  10.3951  10.6128  10.6621  11.2316  11.2642  11.6436  11.6867
    12.4328  12.4606  13.6654  13.6921  14.3460  14.3769  14.5957  14.6387

     occupation numbers 
     1.0000   1.0000   1.0000   1.0000   1.0000   1.0000   1.0000   1.0000
     1.0000   1.0000   1.0000   1.0000   1.0000   1.0000   1.0000   1.0000
     1.0000   1.0000   1.0000   1.0000   1.0000   1.0000   1.0000   1.0000
     1.0000   1.0000   1.0000   1.0000   1.0000   1.0000   1.0000   1.0000
     0.0000   0.0000   0.0000   0.0000   0.0000   0.0000   0.0000   0.0000

          k =-0.1250-0.1758 0.2525 (  3511 PWs)   bands (ev):

    -1.2643  -1.2637  -0.7115  -0.7102   1.4617   1.4687   1.8839   1.8924
     6.0181   6.0264   6.8273   6.8367   7.8212   7.8307   8.4701   8.4994
     8.8683   8.8938   8.9885   9.0182   9.6112   9.6332   9.7886   9.8072
    10.3203  10.3644  10.6560  10.6889  11.0732  11.1022  11.3351  11.3697
    13.4575  13.4949  13.9113  13.9328  14.4084  14.4312  14.7634  14.7844

     occupation numbers 
     1.0000   1.0000   1.0000   1.0000   1.0000   1.0000   1.0000   1.0000
     1.0000   1.0000   1.0000   1.0000   1.0000   1.0000   1.0000   1.0000
     1.0000   1.0000   1.0000   1.0000   1.0000   1.0000   1.0000   1.0000
     1.0000   1.0000   1.0000   1.0000   1.0000   1.0000   1.0000   1.0000
     0.0000   0.0000   0.0000   0.0000   0.0000   0.0000   0.0000   0.0000

          k = 0.7500 0.0703 0.1262 (  3528 PWs)   bands (ev):

    -1.1435  -1.1424  -0.4365  -0.4354   2.3803   2.3884   2.8000   2.8098
     5.8609   5.8652   6.6623   6.6675   7.1681   7.1764   8.0038   8.0189
     8.1512   8.1578   8.5032   8.5211   8.9375   8.9671   9.3981   9.4360
    10.0132  10.0286  10.2736  10.3001  10.8289  10.8539  11.6299  11.6541
    12.6561  12.6779  14.0036  14.0219  14.5898  14.6363  15.0426  15.0738

     occupation numbers 
     1.0000   1.0000   1.0000   1.0000   1.0000   1.0000   1.0000   1.0000
     1.0000   1.0000   1.0000   1.0000   1.0000   1.0000   1.0000   1.0000
     1.0000   1.0000   1.0000   1.0000   1.0000   1.0000   1.0000   1.0000
     1.0000   1.0000   1.0000   1.0000   1.0000   1.0000   1.0000   1.0000
     0.0000   0.0000   0.0000   0.0000   0.0000   0.0000   0.0000   0.0000

          k = 0.7500 0.0703 0.2525 (  3525 PWs)   bands (ev):

    -0.7751  -0.7739  -0.4552  -0.4531   1.9417   1.9516   2.1879   2.1976
     6.4929   6.4980   7.1713   7.1860   7.2548   7.2645   7.6197   7.6315
     8.3543   8.3662   8.8641   8.8849   9.0919   9.1029   9.3124   9.3315
     9.8360   9.8552   9.9561   9.9714  10.8217  10.8548  11.2058  11.2414
    13.3145  13.3400  13.9729  14.0095  14.6122  14.6455  14.7732  14.8130

     occupation numbers 
     1.0000   1.0000   1.0000   1.0000   1.0000   1.0000   1.0000   1.0000
     1.0000   1.0000   1.0000   1.0000   1.0000   1.0000   1.0000   1.0000
     1.0000   1.0000   1.0000   1.0000   1.0000   1.0000   1.0000   1.0000
     1.0000   1.0000   1.0000   1.0000   1.0000   1.0000   1.0000   1.0000
     0.0000   0.0000   0.0000   0.0000   0.0000   0.0000   0.0000   0.0000

          k = 0.6250 0.0352 0.1262 (  3526 PWs)   bands (ev):

    -0.4452  -0.4445  -0.0941  -0.0938   2.8197   2.8297   2.9634   2.9707
     5.6870   5.6973   6.2268   6.2394   6.7094   6.7192   7.0181   7.0244
     7.9807   7.9909   8.3219   8.3409   9.1719   9.1941   9.2584   9.2748
     9.6711   9.6755  10.1058  10.1196  10.7236  10.7399  11.8491  11.8625
    13.4818  13.5061  13.7400  13.7677  14.7036  14.7419  15.0643  15.0836

     occupation numbers 
     1.0000   1.0000   1.0000   1.0000   1.0000   1.0000   1.0000   1.0000
     1.0000   1.0000   1.0000   1.0000   1.0000   1.0000   1.0000   1.0000
     1.0000   1.0000   1.0000   1.0000   1.0000   1.0000   1.0000   1.0000
     1.0000   1.0000   1.0000   1.0000   1.0000   1.0000   1.0000   1.0000
     0.0000   0.0000   0.0000   0.0000   0.0000   0.0000   0.0000   0.0000

          k = 0.6250 0.0352 0.2525 (  3515 PWs)   bands (ev):

    -0.3033  -0.3012  -0.1597  -0.1576   2.6736   2.6852   2.7717   2.7830
     5.9234   5.9425   6.4627   6.4778   6.8041   6.8094   7.4581   7.4651
     7.9856   8.0011   8.5474   8.5639   8.9176   8.9263   9.1701   9.1930
     9.3724   9.3872   9.5458   9.5603  10.9167  10.9387  11.3624  11.3866
    13.8079  13.8206  14.0481  14.0758  14.2118  14.2435  14.7853  14.8422

     occupation numbers 
     1.0000   1.0000   1.0000   1.0000   1.0000   1.0000   1.0000   1.0000
     1.0000   1.0000   1.0000   1.0000   1.0000   1.0000   1.0000   1.0000
     1.0000   1.0000   1.0000   1.0000   1.0000   1.0000   1.0000   1.0000
     1.0000   1.0000   1.0000   1.0000   1.0000   1.0000   1.0000   1.0000
     0.0000   0.0000   0.0000   0.0000   0.0000   0.0000   0.0000   0.0000

          k = 0.0000-0.2109 0.1262 (  3535 PWs)   bands (ev):

    -1.7973  -1.7965  -0.9561  -0.9545   1.8688   1.8750   2.4009   2.4121
     5.6178   5.6294   6.4679   6.4754   7.7401   7.7571   8.1847   8.2141
     9.1259   9.1320   9.6811   9.6843   9.7523   9.7589   9.8763   9.8765
    10.4815  10.4954  10.8834  10.8982  11.5144  11.5499  11.6256  11.6300
    12.8864  12.9001  13.2273  13.2633  13.6459  13.6472  14.6980  14.6999

     occupation numbers 
     1.0000   1.0000   1.0000   1.0000   1.0000   1.0000   1.0000   1.0000
     1.0000   1.0000   1.0000   1.0000   1.0000   1.0000   1.0000   1.0000
     1.0000   1.0000   1.0000   1.0000   1.0000   1.0000   1.0000   1.0000
     1.0000   1.0000   1.0000   1.0000   1.0000   1.0000   1.0000   1.0000
     0.0000   0.0000   0.0000   0.0000   0.0000   0.0000   0.0000   0.0000

          k = 0.0000-0.2109 0.2525 (  3513 PWs)   bands (ev):

    -1.2784  -1.2782  -0.8420  -0.8417   1.1483   1.1520   1.5044   1.5096
     6.1983   6.1998   7.0512   7.0538   7.7881   7.7885   8.5362   8.5440
     9.3117   9.3121   9.4580   9.4611   9.5345   9.5371   9.6882   9.7016
    10.4977  10.5282  11.0666  11.0839  11.2012  11.2014  11.5224  11.5233
    13.4595  13.4836  13.7351  13.7365  14.2288  14.2410  15.1993  15.2036

     occupation numbers 
     1.0000   1.0000   1.0000   1.0000   1.0000   1.0000   1.0000   1.0000
     1.0000   1.0000   1.0000   1.0000   1.0000   1.0000   1.0000   1.0000
     1.0000   1.0000   1.0000   1.0000   1.0000   1.0000   1.0000   1.0000
     1.0000   1.0000   1.0000   1.0000   1.0000   1.0000   1.0000   1.0000
     0.0000   0.0000   0.0000   0.0000   0.0000   0.0000   0.0000   0.0000

          k = 0.8750 0.0352 0.1262 (  3531 PWs)   bands (ev):

    -1.4384  -1.4374  -1.0231  -1.0217   2.1097   2.1173   2.3772   2.3872
     5.8600   5.8710   6.4009   6.4082   8.0093   8.0205   8.3162   8.3351
     8.6541   8.6677   9.0407   9.0559   9.3060   9.3303   9.7250   9.7481
    10.4294  10.4361  10.7440  10.7680  11.1045  11.1413  11.4860  11.4903
    12.3150  12.3506  14.0777  14.0927  14.3569  14.3785  14.5205  14.5361

     occupation numbers 
     1.0000   1.0000   1.0000   1.0000   1.0000   1.0000   1.0000   1.0000
     1.0000   1.0000   1.0000   1.0000   1.0000   1.0000   1.0000   1.0000
     1.0000   1.0000   1.0000   1.0000   1.0000   1.0000   1.0000   1.0000
     1.0000   1.0000   1.0000   1.0000   1.0000   1.0000   1.0000   1.0000
     0.9917   0.0949   0.0000   0.0000   0.0000   0.0000   0.0000   0.0000

          k = 0.8750 0.0352 0.2525 (  3525 PWs)   bands (ev):

    -1.0122  -1.0114  -0.7963  -0.7952   1.3376   1.3438   1.5175   1.5241
     6.5966   6.6016   7.3270   7.3354   7.7418   7.7426   8.3918   8.4064
     8.8187   8.8248   9.0482   9.0614   9.3088   9.3255   9.4365   9.4709
    10.3113  10.3191  10.6096  10.6322  11.0315  11.0618  11.1429  11.1737
    13.5423  13.5593  14.2018  14.2146  14.6246  14.6428  14.7709  14.7837

     occupation numbers 
     1.0000   1.0000   1.0000   1.0000   1.0000   1.0000   1.0000   1.0000
     1.0000   1.0000   1.0000   1.0000   1.0000   1.0000   1.0000   1.0000
     1.0000   1.0000   1.0000   1.0000   1.0000   1.0000   1.0000   1.0000
     1.0000   1.0000   1.0000   1.0000   1.0000   1.0000   1.0000   1.0000
     0.0000   0.0000   0.0000   0.0000   0.0000   0.0000   0.0000   0.0000

     the Fermi energy is    12.3380 ev

!    total energy              =    -114.29183663 Ry
     Harris-Foulkes estimate   =    -114.29183664 Ry
     estimated scf accuracy    <          8.4E-09 Ry

     The total energy is the sum of the following terms:

     one-electron contribution =      41.97681638 Ry
     hartree contribution      =       3.42083980 Ry
     xc contribution           =     -55.00675076 Ry
     ewald contribution        =    -104.68273463 Ry
     smearing contrib. (-TS)   =      -0.00000743 Ry

     convergence has been achieved in  14 iterations

     Writing output data file MoP2.save

     init_run     :      6.98s CPU      7.08s WALL (       1 calls)
     electrons    :    155.35s CPU    156.34s WALL (       1 calls)

     Called by init_run:
     wfcinit      :      5.31s CPU      5.38s WALL (       1 calls)
     wfcinit:atom :      0.04s CPU      0.06s WALL (      12 calls)
     wfcinit:wfcr :      4.89s CPU      4.93s WALL (      12 calls)
     potinit      :      0.32s CPU      0.33s WALL (       1 calls)

     Called by electrons:
     c_bands      :    126.50s CPU    127.31s WALL (      14 calls)
     sum_band     :     26.95s CPU     27.06s WALL (      14 calls)
     v_of_rho     :      1.02s CPU      1.03s WALL (      15 calls)
     v_h          :      0.05s CPU      0.05s WALL (      15 calls)
     v_xc         :      0.98s CPU      0.99s WALL (      15 calls)
     mix_rho      :      0.68s CPU      0.70s WALL (      14 calls)

     Called by c_bands:
     init_us_2    :      0.80s CPU      0.81s WALL (     348 calls)
     cegterg      :    116.00s CPU    116.41s WALL (     168 calls)

     Called by sum_band:

     Called by *egterg:
     h_psi        :    103.06s CPU    103.29s WALL (     680 calls)
     g_psi        :      0.62s CPU      0.62s WALL (     500 calls)
     cdiaghg      :      2.81s CPU      2.88s WALL (     668 calls)
     cegterg:over :      4.57s CPU      4.57s WALL (     500 calls)
     cegterg:upda :      3.81s CPU      3.81s WALL (     500 calls)
     cegterg:last :      1.49s CPU      1.49s WALL (     168 calls)

     Called by h_psi:
     h_psi:pot    :    101.98s CPU    102.19s WALL (     680 calls)
     h_psi:calbec :      2.32s CPU      2.33s WALL (     680 calls)
     vloc_psi     :     97.51s CPU     97.70s WALL (     680 calls)
     add_vuspsi   :      2.15s CPU      2.15s WALL (     680 calls)

     General routines
     calbec       :      2.32s CPU      2.32s WALL (     680 calls)
     fft          :      0.48s CPU      0.48s WALL (     252 calls)
     fftw         :    105.31s CPU    105.51s WALL (   89380 calls)

     Parallel routines
     fft_scatter  :      8.86s CPU      8.90s WALL (   89632 calls)

     PWSCF        :  2m44.69s CPU     2m49.75s WALL


   This run was terminated on:  12:36: 6  10Jul2019            

=------------------------------------------------------------------------------=
   JOB DONE.
=------------------------------------------------------------------------------=
